LAMMPS (19 Nov 2024 - Development - patch_19Nov2024-57-gf93dd3273d)
OMP_NUM_THREADS environment is not set. Defaulting to 1 thread. (src/comm.cpp:99)
  using 1 OpenMP thread(s) per MPI task
Lattice spacing in x,y,z = 3.316 3.316 3.316
Created orthogonal box = (0 0 0) to (3.316 3.316 3.316)
  1 by 2 by 2 MPI processor grid
Created 2 atoms
  using lattice units in orthogonal box = (0 0 0) to (3.316 3.316 3.316)
  create_atoms CPU = 0.003 seconds
1 atoms in group snapgroup
WARNING: No fixes with time integration, atoms won't move (src/verlet.cpp:60)
Generated 0 of 1 mixed pair_coeff terms from geometric mixing rule
Neighbor list info ...
  update: every = 1 steps, delay = 0 steps, check = yes
  max neighbors/atom: 2000, page size: 100000
  master list distance cutoff = 6.67637
  ghost atom cutoff = 6.67637
  binsize = 3.338185, bins = 1 1 1
  1 neighbor lists, perpetual/occasional/extra = 1 0 0
  (1) pair zero, perpetual
      attributes: half, newton on
      pair build: half/bin/atomonly/newton
      stencil: half/bin/3d
      bin: standard
WARNING: Proc sub-domain size < neighbor skin, could lead to lost atoms (src/domain.cpp:1202)
Setting up Verlet run ...
  Unit style    : metal
  Current step  : 0
  Time step     : 0.001
Per MPI rank memory allocation (min/avg/max) = 3.522 | 3.523 | 3.524 Mbytes
   Step          Temp          E_pair         E_mol          TotEng         Press
         0   0              0              0              0              0
Loop time of 6.4355e-06 on 4 procs for 0 steps with 2 atoms

15.5% CPU use with 4 MPI tasks x 1 OpenMP threads

MPI task timing breakdown:
Section |  min time  |  avg time  |  max time  |%varavg| %total
---------------------------------------------------------------
Pair    | 0          | 0          | 0          |   0.0 |  0.00
Neigh   | 0          | 0          | 0          |   0.0 |  0.00
Comm    | 0          | 0          | 0          |   0.0 |  0.00
Output  | 0          | 0          | 0          |   0.0 |  0.00
Modify  | 0          | 0          | 0          |   0.0 |  0.00
Other   |            | 6.435e-06  |            |       |100.00

Nlocal:            0.5 ave           1 max           0 min
Histogram: 2 0 0 0 0 0 0 0 0 2
Nghost:          274.5 ave         275 max         274 min
Histogram: 2 0 0 0 0 0 0 0 0 2
Neighs:             16 ave          40 max           0 min
Histogram: 2 0 0 0 0 0 1 0 0 1

Total # of neighbors = 64
Ave neighs/atom = 32
Neighbor list builds = 0
Dangerous builds = 0
Total wall time: 0:00:00
