LAMMPS (19 Nov 2024 - Development - patch_19Nov2024-1034-ged627579f6-modified)
# Load then unload four cantilevers with different plastic yield strains
#   model from DOI: 10.1016/j.powtec.2024.120563

units           lj
dimension       3
boundary        p s s
atom_style      bond
special_bonds   lj 0.0 1.0 1.0 coul 0.0 1.0 1.0
newton          on off
comm_modify     vel yes cutoff 2.6
lattice         fcc 1.41
Lattice spacing in x,y,z = 1.4156209 1.4156209 1.4156209
region          box block 0 20 -1 41 -5 5 units box
create_box      4 box bond/types 4 extra/bond/per/atom 20 extra/special/per/atom 50
Created orthogonal box = (0 -1 -5) to (20 41 5)
  1 by 1 by 1 MPI processor grid
mass            * 1.0

# Create initial disordered geometry somewhat near jamming

region          cantilever block 3.0 12.0 0 40 -2.5 2.5 units box
region          cantileverw block 2.0 13.0 -1 41 -3.5 3.5 units box
create_atoms    1 region cantilever
Created 2394 atoms
  using lattice units in orthogonal box = (0 -1.0042 -5.001) to (20 41.0042 5.001)
  create_atoms CPU = 0.001 seconds

velocity        all create 0.1 345910

pair_style      bpm/spring
pair_coeff      * * 1.0 1.0 1.0

fix             1 all nve
fix             wtemp all wall/region cantileverw harmonic 1.0 1.0 1.0

thermo_style    custom step ke pe pxx pyy pzz
thermo          100

timestep        0.1
run             20000
Generated 0 of 6 mixed pair_coeff terms from geometric mixing rule
Neighbor list info ...
  update: every = 1 steps, delay = 0 steps, check = yes
  max neighbors/atom: 2000, page size: 100000
  master list distance cutoff = 1.3
  ghost atom cutoff = 2.6
  binsize = 0.65, bins = 31 65 16
  1 neighbor lists, perpetual/occasional/extra = 1 0 0
  (1) pair bpm/spring, perpetual
      attributes: half, newton on
      pair build: half/bin/newton
      stencil: half/bin/3d
      bin: standard
Per MPI rank memory allocation (min/avg/max) = 9.752 | 9.752 | 9.752 Mbytes
   Step         KinEng         PotEng          Pxx            Pyy            Pzz      
         0   0.14993734     0              0.071514461    0.070121562    0.071454556  
       100   0.0066788839   0.0029982274   0.016637041    0.016868542    0.015823802  
       200   0.0019715508   0.00071490141  0.007843495    0.0076223765   0.0067662021 
       300   0.00087217257  0.00026043228  0.003985349    0.004259066    0.0040664397 
       400   0.00050307484  0.00011882009  0.0024899485   0.0025393633   0.0024477801 
       500   0.00033241763  6.5955939e-05  0.0016895447   0.0018048761   0.0017308071 
       600   0.00023663671  4.4828066e-05  0.0013515511   0.001353668    0.0013208904 
       700   0.0001837694   2.7185024e-05  0.00094852029  0.0010286312   0.00099370739
       800   0.00014655165  1.8873405e-05  0.00075979673  0.0008230931   0.00075345331
       900   0.00012145909  1.4344012e-05  0.00060702604  0.00068683252  0.00061213385
      1000   0.00010239299  1.2153676e-05  0.00055078741  0.00060838425  0.00054159268
      1100   8.8075366e-05  9.9954299e-06  0.00045915185  0.00057179945  0.00047014896
      1200   7.8336822e-05  7.4598572e-06  0.00038286385  0.000423282    0.00040077777
      1300   6.8617848e-05  7.4071518e-06  0.00038962894  0.00045042653  0.00042176853
      1400   6.1816066e-05  5.7757188e-06  0.00035626235  0.00037452754  0.00033148835
      1500   5.5158763e-05  5.3010672e-06  0.00032659745  0.00035059437  0.0003143055 
      1600   5.0680523e-05  4.4203877e-06  0.00027420802  0.00032194903  0.00030193132
      1700   4.6020086e-05  4.0228214e-06  0.00026909527  0.00029969818  0.00027492066
      1800   4.1968387e-05  3.9751303e-06  0.00027184181  0.00028203292  0.00026747334
      1900   3.8741903e-05  3.5539155e-06  0.00024183418  0.00026550737  0.00025356968
      2000   3.6204768e-05  2.9462894e-06  0.00022277001  0.00025408288  0.0002123446 
      2100   3.3266509e-05  2.8028832e-06  0.00021917117  0.00024069099  0.00020369452
      2200   3.102664e-05   2.6085678e-06  0.0001882006   0.00023685724  0.00019134947
      2300   2.903812e-05   2.3143895e-06  0.0001749797   0.00021704715  0.00019021214
      2400   2.7141792e-05  2.1848123e-06  0.00018014226  0.00020933228  0.00017930569
      2500   2.5612882e-05  1.8545406e-06  0.00017807794  0.00016882959  0.0001750063 
      2600   2.4068378e-05  1.7104525e-06  0.00015853683  0.000178264    0.00015848288
      2700   2.2573196e-05  1.7771307e-06  0.00015577573  0.00017747772  0.00016654472
      2800   2.1422175e-05  1.4847142e-06  0.00014322637  0.00013897114  0.00014490629
      2900   2.0433268e-05  1.3514585e-06  0.00012745407  0.00014678277  0.000135221  
      3000   1.9204132e-05  1.3849721e-06  0.00012986068  0.00015084177  0.00014142185
      3100   1.8212704e-05  1.2748732e-06  0.00013317833  0.00014368027  0.00013451894
      3200   1.7326097e-05  1.3213286e-06  0.00012777819  0.00014793494  0.00012886678
      3300   1.6615969e-05  1.1158927e-06  0.00011223033  0.00012323335  0.0001210878 
      3400   1.5855041e-05  1.1229014e-06  0.00011468711  0.00013243589  0.00012051018
      3500   1.532374e-05   8.888678e-07   0.00010638549  0.00011430069  0.00010089698
      3600   1.467535e-05   8.7654654e-07  8.8094885e-05  0.00011642682  0.00010671988
      3700   1.4062105e-05  8.1807269e-07  9.4265348e-05  0.0001161673   9.3404926e-05
      3800   1.3552196e-05  8.3487647e-07  8.6030873e-05  0.00011280194  0.0001010521 
      3900   1.3022591e-05  7.9989391e-07  0.00010119027  0.00010258667  9.1434393e-05
      4000   1.2525445e-05  8.1520281e-07  9.5211467e-05  0.00010785495  9.97298e-05  
      4100   1.2181734e-05  6.4410557e-07  9.4373715e-05  8.9279858e-05  7.9893316e-05
      4200   1.1704251e-05  7.0450874e-07  8.0872404e-05  9.4334475e-05  8.8302993e-05
      4300   1.1280286e-05  7.1408139e-07  9.1119222e-05  8.5870034e-05  8.8445587e-05
      4400   1.1016643e-05  6.0873467e-07  7.9024773e-05  8.1967988e-05  8.5977338e-05
      4500   1.0668349e-05  5.8516931e-07  7.8294095e-05  8.0043527e-05  8.4715888e-05
      4600   1.0331041e-05  5.7376843e-07  7.5679063e-05  8.2398328e-05  7.4278168e-05
      4700   1.0004816e-05  5.4597537e-07  7.2607537e-05  7.7956907e-05  6.9095147e-05
      4800   9.7594591e-06  5.2681078e-07  7.6737892e-05  6.79129e-05    7.2013864e-05
      4900   9.4372215e-06  5.108678e-07   7.1926492e-05  7.6336467e-05  7.2404427e-05
      5000   9.2301398e-06  4.9943356e-07  6.9272822e-05  7.4437007e-05  6.8591392e-05
      5100   8.9087719e-06  5.0137676e-07  7.1953364e-05  7.0112306e-05  7.1894235e-05
      5200   8.6733384e-06  4.6530133e-07  5.9160431e-05  7.2957759e-05  6.7731265e-05
      5300   8.5237067e-06  4.0166784e-07  5.6976938e-05  6.4780167e-05  6.2493655e-05
      5400   8.2585748e-06  3.9144457e-07  5.6287251e-05  6.5281415e-05  6.4678701e-05
      5500   8.1089159e-06  3.5903718e-07  6.2738749e-05  5.8042636e-05  5.1954549e-05
      5600   7.8605737e-06  3.9176106e-07  6.1198736e-05  6.5959291e-05  5.8081374e-05
      5700   7.6788462e-06  3.8505614e-07  5.5766462e-05  6.4100303e-05  6.0012403e-05
      5800   7.5163424e-06  3.4531571e-07  5.326349e-05   6.1833688e-05  4.8218455e-05
      5900   7.3552892e-06  3.1726542e-07  5.2593444e-05  5.3015093e-05  5.2366381e-05
      6000   7.1550139e-06  3.188599e-07   4.7713401e-05  5.6322276e-05  5.2424598e-05
      6100   7.0361757e-06  3.0641052e-07  4.7286992e-05  5.8028248e-05  5.2063931e-05
      6200   6.8801441e-06  2.7974487e-07  5.3580486e-05  4.6047586e-05  4.7327222e-05
      6300   6.6802143e-06  3.3499395e-07  5.8400669e-05  5.5627535e-05  4.7978034e-05
      6400   6.5789434e-06  2.8602311e-07  5.0198228e-05  5.5844532e-05  4.877662e-05 
      6500   6.4436475e-06  2.6008325e-07  4.7602086e-05  4.4486849e-05  4.6404674e-05
      6600   6.2843629e-06  2.7832981e-07  4.7074622e-05  4.6606369e-05  4.9936757e-05
      6700   6.1703075e-06  2.8089174e-07  4.7083973e-05  4.6575052e-05  5.0006622e-05
      6800   6.0794707e-06  2.5065496e-07  4.3818817e-05  4.8409259e-05  3.8917908e-05
      6900   5.9095362e-06  2.8634305e-07  5.2986415e-05  4.8027488e-05  5.1770643e-05
      7000   5.8364704e-06  2.4891212e-07  4.3004439e-05  4.6236407e-05  4.203024e-05 
      7100   5.676111e-06   2.8000071e-07  4.2647162e-05  5.4717075e-05  4.5375773e-05
      7200   5.6485498e-06  2.0372933e-07  3.7420101e-05  4.5276234e-05  3.716119e-05 
      7300   5.4828422e-06  2.3962736e-07  4.4493988e-05  4.3446503e-05  4.673755e-05 
      7400   5.3980604e-06  2.3856758e-07  4.0222008e-05  4.6533781e-05  4.3072176e-05
      7500   5.3006008e-06  2.2358346e-07  4.0025366e-05  3.6897725e-05  4.4834626e-05
      7600   5.197958e-06   2.3660321e-07  4.0784719e-05  4.4961031e-05  4.2087955e-05
      7700   5.1806799e-06  1.7718602e-07  3.2411759e-05  3.9110371e-05  3.8802708e-05
      7800   5.0962887e-06  1.7412195e-07  3.6552483e-05  3.5361276e-05  3.2904976e-05
      7900   4.9703998e-06  2.1337014e-07  4.3936409e-05  4.0886722e-05  3.9732939e-05
      8000   4.9053377e-06  1.7953438e-07  3.7608294e-05  3.4731494e-05  3.6081071e-05
      8100   4.8171492e-06  1.9697727e-07  3.3678657e-05  4.1808664e-05  4.1007093e-05
      8200   4.7721132e-06  1.7544811e-07  3.4665105e-05  3.2777884e-05  3.774731e-05 
      8300   4.708456e-06   1.6203898e-07  3.7062724e-05  3.4881585e-05  2.9315416e-05
      8400   4.6397062e-06  1.3777361e-07  3.1993062e-05  2.840598e-05   2.8943249e-05
      8500   4.5983716e-06  1.3333705e-07  3.2032331e-05  3.1515185e-05  2.7257332e-05
      8600   4.5175708e-06  1.4915416e-07  3.0728382e-05  3.0468802e-05  3.1961748e-05
      8700   4.4347789e-06  1.5492856e-07  3.0961313e-05  3.4774356e-05  2.957729e-05 
      8800   4.3438643e-06  1.9416152e-07  3.5496445e-05  3.650361e-05   3.7686819e-05
      8900   4.2916882e-06  1.7972527e-07  3.4999135e-05  3.4301174e-05  3.369003e-05 
      9000   4.2420397e-06  1.653212e-07   3.2002391e-05  3.5994842e-05  3.6333896e-05
      9100   4.156708e-06   1.7541257e-07  3.1781091e-05  3.3713908e-05  3.6414424e-05
      9200   4.1206942e-06  1.6684543e-07  3.1148086e-05  3.4009984e-05  3.6543294e-05
      9300   4.0739027e-06  1.5661214e-07  3.2100841e-05  3.1002639e-05  3.2377644e-05
      9400   4.0749842e-06  1.1325533e-07  2.7132088e-05  2.6729932e-05  2.6505394e-05
      9500   4.0182431e-06  1.1916661e-07  2.8267149e-05  2.7495849e-05  2.5348393e-05
      9600   3.9394743e-06  1.4897486e-07  3.1303396e-05  2.8986697e-05  3.3906299e-05
      9700   3.9202642e-06  1.1265772e-07  2.6904853e-05  2.9419644e-05  2.3388387e-05
      9800   3.8563029e-06  1.4201267e-07  2.9742419e-05  3.0333264e-05  2.8597551e-05
      9900   3.8407551e-06  1.0925008e-07  2.4813089e-05  2.518408e-05   2.5132946e-05
     10000   3.8031732e-06  1.0429945e-07  2.4587006e-05  2.4160366e-05  2.2475372e-05
     10100   3.7403802e-06  1.188634e-07   2.621425e-05   2.747381e-05   2.7423478e-05
     10200   3.6933569e-06  1.177636e-07   2.3506114e-05  3.0373875e-05  2.7330288e-05
     10300   3.6359757e-06  1.3540565e-07  2.4720627e-05  3.1264106e-05  3.0431809e-05
     10400   3.6158282e-06  1.1027073e-07  2.6627036e-05  2.5041131e-05  2.3909283e-05
     10500   3.5857824e-06  1.0049365e-07  2.5306577e-05  2.7251152e-05  2.1635787e-05
     10600   3.5260536e-06  1.1579533e-07  2.581535e-05   2.7130923e-05  2.4935895e-05
     10700   3.5024547e-06  1.0954559e-07  2.5027035e-05  2.8379233e-05  2.2447535e-05
     10800   3.4853309e-06  9.4720082e-08  2.2724388e-05  2.0056563e-05  2.3309701e-05
     10900   3.4396529e-06  1.0829632e-07  2.5958339e-05  2.6491256e-05  2.1617336e-05
     11000   3.3987023e-06  9.7092727e-08  2.2470175e-05  2.2846816e-05  2.091066e-05 
     11100   3.3606128e-06  9.8398405e-08  2.2648156e-05  2.4731296e-05  2.0418175e-05
     11200   3.3396876e-06  7.6470057e-08  1.9873816e-05  1.9797248e-05  1.9115439e-05
     11300   3.3041431e-06  9.3155692e-08  2.3746612e-05  2.3286585e-05  1.93667e-05  
     11400   3.2797866e-06  9.0584145e-08  2.1717142e-05  2.5320734e-05  2.118408e-05 
     11500   3.2454003e-06  8.5422835e-08  2.2434639e-05  1.920118e-05   2.0617104e-05
     11600   3.1819911e-06  1.1244129e-07  1.791276e-05   2.6915583e-05  2.355823e-05 
     11700   3.1635572e-06  1.0031236e-07  2.2122734e-05  2.3651576e-05  2.2707601e-05
     11800   3.1420932e-06  8.9733842e-08  2.0691568e-05  2.1346189e-05  2.3543388e-05
     11900   3.1066705e-06  9.1501672e-08  2.0236573e-05  2.2932414e-05  1.9990374e-05
     12000   3.0745943e-06  8.9277079e-08  2.0150526e-05  2.2352883e-05  1.8398403e-05
     12100   3.0733981e-06  7.4616245e-08  1.9385797e-05  1.7454795e-05  1.9264248e-05
     12200   3.0257929e-06  9.2174543e-08  1.869441e-05   2.4202442e-05  2.2015e-05   
     12300   3.0234068e-06  6.5090899e-08  1.767132e-05   1.9462735e-05  1.6725567e-05
     12400   3.0027086e-06  6.2193553e-08  1.4880016e-05  2.0662066e-05  1.8614087e-05
     12500   2.9319141e-06  1.0097547e-07  2.1488942e-05  2.1615501e-05  2.148531e-05 
     12600   2.9289151e-06  7.6302482e-08  1.7692348e-05  1.8642681e-05  1.7425701e-05
     12700   2.90702e-06    7.6215717e-08  1.9509559e-05  1.8415327e-05  2.2776532e-05
     12800   2.8758381e-06  7.9105433e-08  1.8521166e-05  2.0454146e-05  2.0370962e-05
     12900   2.8317602e-06  9.1385197e-08  2.0335336e-05  2.4975614e-05  2.0240701e-05
     13000   2.8410057e-06  6.0044423e-08  1.629434e-05   1.823554e-05   1.511721e-05 
     13100   2.782039e-06   8.4410675e-08  2.0919093e-05  2.0809882e-05  1.8657917e-05
     13200   2.791875e-06   5.337143e-08   1.5825524e-05  1.9356399e-05  1.2911019e-05
     13300   2.7487173e-06  7.6547916e-08  1.962803e-05   1.8981737e-05  2.0142921e-05
     13400   2.7299962e-06  6.7372367e-08  1.7153528e-05  1.8103989e-05  1.7732609e-05
     13500   2.7057441e-06  7.2429583e-08  1.9019906e-05  1.9691015e-05  1.9578145e-05
     13600   2.6778573e-06  8.0573212e-08  1.8433433e-05  2.0729038e-05  2.0267435e-05
     13700   2.6826077e-06  4.4511734e-08  1.3084576e-05  1.5000823e-05  1.3750559e-05
     13800   2.647424e-06   5.9574367e-08  1.4631775e-05  1.4306273e-05  1.7157491e-05
     13900   2.6110162e-06  7.4881186e-08  1.7818332e-05  2.148169e-05   1.7463563e-05
     14000   2.6014529e-06  6.3294079e-08  1.5635773e-05  1.7333417e-05  1.6871959e-05
     14100   2.5707329e-06  7.3706564e-08  1.691795e-05   2.2276988e-05  1.7435609e-05
     14200   2.5693783e-06  5.5754478e-08  1.6045272e-05  1.5266604e-05  1.6872656e-05
     14300   2.543378e-06   5.6841288e-08  1.7342484e-05  1.6861913e-05  1.5333195e-05
     14400   2.5180009e-06  6.7438588e-08  1.7569821e-05  1.8124358e-05  1.8789645e-05
     14500   2.505371e-06   5.8372098e-08  1.5370256e-05  1.7944439e-05  1.3727925e-05
     14600   2.50052e-06    5.2960357e-08  1.2874059e-05  1.6976938e-05  1.5523433e-05
     14700   2.4677314e-06  5.6098859e-08  1.5234684e-05  1.4810739e-05  1.6137648e-05
     14800   2.4431342e-06  6.9542809e-08  1.7307233e-05  1.675592e-05   1.8785122e-05
     14900   2.4217996e-06  6.5392872e-08  1.8214833e-05  1.7872976e-05  1.6079527e-05
     15000   2.4223306e-06  4.8254257e-08  1.6243518e-05  1.3430592e-05  1.4053815e-05
     15100   2.3971545e-06  5.8012806e-08  1.5024579e-05  1.5105347e-05  1.3560674e-05
     15200   2.3734628e-06  5.4310001e-08  1.3063191e-05  1.5414145e-05  1.5458277e-05
     15300   2.3523286e-06  6.1640634e-08  1.7876627e-05  1.6249813e-05  1.687417e-05 
     15400   2.3489693e-06  4.7278336e-08  1.2011731e-05  1.2230688e-05  1.678822e-05 
     15500   2.3284108e-06  5.2715812e-08  1.3176372e-05  1.6503583e-05  1.3955123e-05
     15600   2.2947375e-06  6.7465869e-08  1.5326712e-05  1.9881502e-05  1.6487331e-05
     15700   2.3019796e-06  4.8005103e-08  1.4590446e-05  1.4276946e-05  1.4055723e-05
     15800   2.2826912e-06  4.9641879e-08  1.3481867e-05  1.6276418e-05  1.3419255e-05
     15900   2.2583072e-06  5.4614844e-08  1.7382114e-05  1.604672e-05   1.4741544e-05
     16000   2.2430797e-06  4.8420384e-08  1.2843624e-05  1.2618834e-05  1.2491054e-05
     16100   2.2264678e-06  4.796181e-08   1.4438989e-05  1.5552177e-05  1.2048946e-05
     16200   2.2123007e-06  5.2907699e-08  1.2747032e-05  1.4431874e-05  1.6152188e-05
     16300   2.1942666e-06  5.1538008e-08  1.3243122e-05  1.4793006e-05  1.4855916e-05
     16400   2.1800741e-06  5.0280071e-08  1.1549921e-05  1.5836438e-05  1.5087605e-05
     16500   2.1718081e-06  4.2144732e-08  1.4603756e-05  1.3084635e-05  1.2983558e-05
     16600   2.15145e-06    4.6326815e-08  1.4904114e-05  1.4500088e-05  1.2283839e-05
     16700   2.1563978e-06  3.2862475e-08  1.1841441e-05  1.2463519e-05  1.0662253e-05
     16800   2.1128692e-06  5.462978e-08   1.3455978e-05  1.6216741e-05  1.4636363e-05
     16900   2.1178726e-06  3.6500222e-08  1.1666564e-05  1.2789709e-05  9.6393609e-06
     17000   2.1058751e-06  3.6428095e-08  1.3109685e-05  1.304962e-05   1.0397847e-05
     17100   2.0817867e-06  5.1894295e-08  1.5527039e-05  1.442429e-05   1.1662417e-05
     17200   2.0697616e-06  4.8400908e-08  1.2051247e-05  1.4854095e-05  1.4277423e-05
     17300   2.0496506e-06  5.1765629e-08  1.5484172e-05  1.6516861e-05  1.3787806e-05
     17400   2.0318945e-06  5.0178134e-08  1.2610435e-05  1.5926848e-05  1.3146463e-05
     17500   2.0312975e-06  4.2775082e-08  1.1413756e-05  1.2303892e-05  1.332512e-05 
     17600   2.0286562e-06  3.3246228e-08  9.9623166e-06  1.1190246e-05  1.0713751e-05
     17700   2.0057117e-06  4.1465626e-08  1.28564e-05    1.2354674e-05  1.1732572e-05
     17800   1.9775891e-06  5.3253383e-08  1.3320474e-05  1.6084721e-05  1.1697579e-05
     17900   1.9763707e-06  4.0037754e-08  1.0787927e-05  1.0905895e-05  1.2524822e-05
     18000   1.9659819e-06  4.2213997e-08  1.0786016e-05  1.356023e-05   1.3052018e-05
     18100   1.962808e-06   3.1950711e-08  1.0829314e-05  1.246617e-05   1.1079602e-05
     18200   1.9360469e-06  4.3810974e-08  1.382493e-05   1.245849e-05   1.2288243e-05
     18300   1.9407685e-06  3.0042901e-08  7.3716082e-06  1.109871e-05   1.226921e-05 
     18400   1.910359e-06   4.7042217e-08  1.3644803e-05  1.4884969e-05  1.1956804e-05
     18500   1.8946497e-06  5.0743345e-08  1.1974771e-05  1.4385508e-05  1.7610709e-05
     18600   1.8962987e-06  3.9757677e-08  1.0582884e-05  1.2673246e-05  1.3298389e-05
     18700   1.8742478e-06  4.4718119e-08  1.5344401e-05  1.2546575e-05  1.1764246e-05
     18800   1.8650878e-06  3.7704721e-08  1.07802e-05    1.2917662e-05  9.5373738e-06
     18900   1.8685713e-06  3.6504734e-08  1.0815769e-05  1.3268273e-05  9.2228416e-06
     19000   1.8510631e-06  3.5157873e-08  1.2534306e-05  1.2128038e-05  1.0355377e-05
     19100   1.844547e-06   3.5807341e-08  1.1011196e-05  1.2288462e-05  1.042938e-05 
     19200   1.8237482e-06  4.4374495e-08  1.0976301e-05  1.0525434e-05  1.3496339e-05
     19300   1.809658e-06   4.663351e-08   1.0427019e-05  1.2761301e-05  1.2443509e-05
     19400   1.8047595e-06  3.7730816e-08  1.2549441e-05  9.4564734e-06  1.159109e-05 
     19500   1.7912254e-06  3.9882052e-08  1.3940679e-05  1.220604e-05   1.1210472e-05
     19600   1.789224e-06   3.7125586e-08  1.0231473e-05  1.2070753e-05  1.1047121e-05
     19700   1.7845362e-06  3.456485e-08   1.12335e-05    1.042505e-05   9.0484867e-06
     19800   1.7683141e-06  3.8353201e-08  1.29417e-05    1.0764969e-05  1.116828e-05 
     19900   1.7664071e-06  3.2153664e-08  9.4515931e-06  1.1051242e-05  1.0924767e-05
     20000   1.7618892e-06  2.2689236e-08  8.4011955e-06  7.5721128e-06  8.9521609e-06
Loop time of 1.48476 on 1 procs for 20000 steps with 2394 atoms

Performance: 116382628.128 tau/day, 13470.212 timesteps/s, 32.248 Matom-step/s
99.8% CPU use with 1 MPI tasks x no OpenMP threads

MPI task timing breakdown:
Section |  min time  |  avg time  |  max time  |%varavg| %total
---------------------------------------------------------------
Pair    | 0.63885    | 0.63885    | 0.63885    |   0.0 | 43.03
Bond    | 0.00053413 | 0.00053413 | 0.00053413 |   0.0 |  0.04
Neigh   | 0.15112    | 0.15112    | 0.15112    |   0.0 | 10.18
Comm    | 0.0056225  | 0.0056225  | 0.0056225  |   0.0 |  0.38
Output  | 0.0032158  | 0.0032158  | 0.0032158  |   0.0 |  0.22
Modify  | 0.61597    | 0.61597    | 0.61597    |   0.0 | 41.49
Other   |            | 0.06945    |            |       |  4.68

Nlocal:           2394 ave        2394 max        2394 min
Histogram: 1 0 0 0 0 0 0 0 0 0
Nghost:              0 ave           0 max           0 min
Histogram: 1 0 0 0 0 0 0 0 0 0
Neighs:          11170 ave       11170 max       11170 min
Histogram: 1 0 0 0 0 0 0 0 0 0

Total # of neighbors = 11170
Ave neighs/atom = 4.6658312
Ave special neighs/atom = 0
Neighbor list builds = 199
Dangerous builds = 0
unfix           wtemp

# Replicate cylinder and add bonds

replicate       4 1 1
Replication is creating a 4x1x1 = 4 times larger system...
  orthogonal box = (0 -0.0019118212 -2.5018545) to (80 40.003414 2.5021045)
  1 by 1 by 1 MPI processor grid
  9576 atoms
Finding 1-2 1-3 1-4 neighbors ...
  special bond factors lj:    0        1        1       
  special bond factors coul:  0        1        1       
     0 = max # of 1-2 neighbors
   101 = max # of special neighbors
  special bonds CPU = 0.000 seconds
  replicate CPU = 0.001 seconds

region          r1 block 0.0  20.0 EDGE EDGE EDGE EDGE side in units box
region          r2 block 20.0 40.0 EDGE EDGE EDGE EDGE side in units box
region          r3 block 40.0 60.0 EDGE EDGE EDGE EDGE side in units box
region          r4 block 60.0 80.0 EDGE EDGE EDGE EDGE side in units box

group           c1 region r1
2394 atoms in group c1
group           c2 region r2
2394 atoms in group c2
group           c3 region r3
2394 atoms in group c3
group           c4 region r4
2394 atoms in group c4

set             group c2 type 2
Setting atom values ...
  2394 settings made for type
set             group c3 type 3
Setting atom values ...
  2394 settings made for type
set             group c4 type 4
Setting atom values ...
  2394 settings made for type

velocity        all set 0.0 0.0 0.0
neighbor        1.0 bin

create_bonds    many c1 c1 1 0.0 1.5
Generated 0 of 6 mixed pair_coeff terms from geometric mixing rule
Neighbor list info ...
  update: every = 1 steps, delay = 0 steps, check = yes
  max neighbors/atom: 2000, page size: 100000
  master list distance cutoff = 2
  ghost atom cutoff = 2.6
  binsize = 1, bins = 80 41 6
  2 neighbor lists, perpetual/occasional/extra = 1 1 0
  (1) command create_bonds, occasional
      attributes: full, newton on
      pair build: full/bin
      stencil: full/bin/3d
      bin: standard
  (2) pair bpm/spring, perpetual
      attributes: half, newton on
      pair build: half/bin/newton
      stencil: half/bin/3d
      bin: standard
Added 13760 bonds, new total = 13760
Finding 1-2 1-3 1-4 neighbors ...
  special bond factors lj:    0        1        1       
  special bond factors coul:  0        1        1       
    17 = max # of 1-2 neighbors
   101 = max # of special neighbors
  special bonds CPU = 0.001 seconds
create_bonds    many c2 c2 2 0.0 1.5
Generated 0 of 6 mixed pair_coeff terms from geometric mixing rule
WARNING: Bonds are defined but no bond style is set (../force.cpp:197)
WARNING: Likewise 1-2 special neighbor interactions != 1.0 (../force.cpp:199)
Neighbor list info ...
  update: every = 1 steps, delay = 0 steps, check = yes
  max neighbors/atom: 2000, page size: 100000
  master list distance cutoff = 2
  ghost atom cutoff = 2.6
  binsize = 1, bins = 80 41 6
  2 neighbor lists, perpetual/occasional/extra = 1 1 0
  (1) command create_bonds, occasional
      attributes: full, newton on
      pair build: full/bin
      stencil: full/bin/3d
      bin: standard
  (2) pair bpm/spring, perpetual
      attributes: half, newton on
      pair build: half/bin/newton
      stencil: half/bin/3d
      bin: standard
Added 13760 bonds, new total = 27520
Finding 1-2 1-3 1-4 neighbors ...
  special bond factors lj:    0        1        1       
  special bond factors coul:  0        1        1       
    17 = max # of 1-2 neighbors
   101 = max # of special neighbors
  special bonds CPU = 0.002 seconds
create_bonds    many c3 c3 3 0.0 1.5
Generated 0 of 6 mixed pair_coeff terms from geometric mixing rule
WARNING: Bonds are defined but no bond style is set (../force.cpp:197)
WARNING: Likewise 1-2 special neighbor interactions != 1.0 (../force.cpp:199)
Neighbor list info ...
  update: every = 1 steps, delay = 0 steps, check = yes
  max neighbors/atom: 2000, page size: 100000
  master list distance cutoff = 2
  ghost atom cutoff = 2.6
  binsize = 1, bins = 80 41 6
  2 neighbor lists, perpetual/occasional/extra = 1 1 0
  (1) command create_bonds, occasional
      attributes: full, newton on
      pair build: full/bin
      stencil: full/bin/3d
      bin: standard
  (2) pair bpm/spring, perpetual
      attributes: half, newton on
      pair build: half/bin/newton
      stencil: half/bin/3d
      bin: standard
Added 13760 bonds, new total = 41280
Finding 1-2 1-3 1-4 neighbors ...
  special bond factors lj:    0        1        1       
  special bond factors coul:  0        1        1       
    17 = max # of 1-2 neighbors
   101 = max # of special neighbors
  special bonds CPU = 0.002 seconds
create_bonds    many c4 c4 4 0.0 1.5
Generated 0 of 6 mixed pair_coeff terms from geometric mixing rule
WARNING: Bonds are defined but no bond style is set (../force.cpp:197)
WARNING: Likewise 1-2 special neighbor interactions != 1.0 (../force.cpp:199)
Neighbor list info ...
  update: every = 1 steps, delay = 0 steps, check = yes
  max neighbors/atom: 2000, page size: 100000
  master list distance cutoff = 2
  ghost atom cutoff = 2.6
  binsize = 1, bins = 80 41 6
  2 neighbor lists, perpetual/occasional/extra = 1 1 0
  (1) command create_bonds, occasional
      attributes: full, newton on
      pair build: full/bin
      stencil: full/bin/3d
      bin: standard
  (2) pair bpm/spring, perpetual
      attributes: half, newton on
      pair build: half/bin/newton
      stencil: half/bin/3d
      bin: standard
Added 13760 bonds, new total = 55040
Finding 1-2 1-3 1-4 neighbors ...
  special bond factors lj:    0        1        1       
  special bond factors coul:  0        1        1       
    17 = max # of 1-2 neighbors
   101 = max # of special neighbors
  special bonds CPU = 0.002 seconds

neighbor        0.3 bin
special_bonds   lj 0.0 1.0 1.0 coul 1.0 1.0 1.0

bond_style      bpm/spring/plastic break no smooth no
bond_coeff      1 1.0 0 1.0 1.0
bond_coeff      2 1.0 0 1.0 0.022
bond_coeff      3 1.0 0 1.0 0.0185
bond_coeff      4 1.0 0 1.0 0.017

# apply load

region          anchor block EDGE EDGE EDGE 2.0 EDGE EDGE units box
region          load block EDGE EDGE 38.0 EDGE EDGE EDGE units box
group           anchor region anchor
512 atoms in group anchor
group           load region load
592 atoms in group load

variable        fload equal ramp(0.0,-0.0005)
fix             2 anchor setforce 0.0 0.0 0.0
fix             3 load addforce 0.0 0.0 v_fload
fix             4 all viscous 0.0016

compute         zmin1 c1 reduce min z
compute         zmin2 c2 reduce min z
compute         zmin3 c3 reduce min z
compute         zmin4 c4 reduce min z

thermo_style    custom step ke c_zmin1 c_zmin2 c_zmin3 c_zmin4
dump            1 all custom 1000 atomDump id type x y z

run             30000

CITE-CITE-CITE-CITE-CITE-CITE-CITE-CITE-CITE-CITE-CITE-CITE-CITE

Your simulation uses code contributions which should be cited:

- BPM bond style: doi:10.1039/D3SM01373A

@Article{Clemmer2024,
 author =  {Clemmer, Joel T. and Monti, Joseph M. and Lechman, Jeremy B.},
 title =   {A soft departure from jamming: the compaction of deformable
            granular matter under high pressures},
 journal = {Soft Matter},
 year =    2024,
 volume =  20,
 number =  8,
 pages =   {1702--1718}
}

- BPM/spring/plastic bond style: doi:10.1016/j.powtec.2024.120563

@Article{Clemmer2025,
 author =  {Clemmer, Joel T. and Lechman, Jeremy B.},
 title =   {Onset and impact of plastic deformation in granular compaction},
 journal = {Powder Technology},
 year =    2025,
 volume =  452,
 number =  28,
 pages =   {120563}
}

CITE-CITE-CITE-CITE-CITE-CITE-CITE-CITE-CITE-CITE-CITE-CITE-CITE

Generated 0 of 6 mixed pair_coeff terms from geometric mixing rule
Neighbor list info ...
  update: every = 1 steps, delay = 0 steps, check = yes
  max neighbors/atom: 2000, page size: 100000
  master list distance cutoff = 1.3
  ghost atom cutoff = 2.6
  binsize = 0.65, bins = 124 62 8
  1 neighbor lists, perpetual/occasional/extra = 1 0 0
  (1) pair bpm/spring, perpetual
      attributes: half, newton on
      pair build: half/bin/newton
      stencil: half/bin/3d
      bin: standard
Per MPI rank memory allocation (min/avg/max) = 20.02 | 20.02 | 20.02 Mbytes
   Step         KinEng        c_zmin1        c_zmin2        c_zmin3        c_zmin4    
     20000   0             -2.5009426     -2.5009426     -2.5009426     -2.5009426    
     20100   1.2351668e-12 -2.5009426     -2.5009426     -2.5009426     -2.5009426    
     20200   1.6504342e-11 -2.50094       -2.50094       -2.50094       -2.50094      
     20300   7.2443173e-11 -2.5009238     -2.5009238     -2.5009238     -2.5009238    
     20400   2.0430679e-10 -2.5009047     -2.5009047     -2.5009047     -2.5009047    
     20500   4.5403534e-10 -2.5014106     -2.5014106     -2.5014106     -2.5014106    
     20600   8.6883638e-10 -2.5021368     -2.5021368     -2.5021368     -2.5021368    
     20700   1.5005944e-09 -2.5032627     -2.5032627     -2.5032627     -2.5032627    
     20800   2.4020834e-09 -2.5048635     -2.5048635     -2.5048635     -2.5048635    
     20900   3.620123e-09  -2.5068127     -2.5068127     -2.5068127     -2.5068127    
     21000   5.1981536e-09 -2.5091315     -2.5091315     -2.5091315     -2.5091315    
     21100   7.1838766e-09 -2.5118405     -2.5118405     -2.5118405     -2.5118405    
     21200   9.6334884e-09 -2.5149609     -2.5149609     -2.5149609     -2.5149609    
     21300   1.2612436e-08 -2.5185116     -2.5185116     -2.5185116     -2.5185116    
     21400   1.6194239e-08 -2.5224995     -2.5224995     -2.5224995     -2.5224995    
     21500   2.0460353e-08 -2.5269165     -2.5269165     -2.5269165     -2.5269165    
     21600   2.5502476e-08 -2.5317485     -2.5317485     -2.5317485     -2.5317485    
     21700   3.1420875e-08 -2.5369872     -2.5369872     -2.5369872     -2.5369872    
     21800   3.831695e-08  -2.5426357     -2.5426357     -2.5426357     -2.5426357    
     21900   4.6285399e-08 -2.5487084     -2.5487084     -2.5487084     -2.5487084    
     22000   5.540962e-08  -2.5552276     -2.5552276     -2.5552276     -2.5552276    
     22100   6.5761039e-08 -2.5622201     -2.5622201     -2.5622201     -2.5622201    
     22200   7.7400349e-08 -2.5697151     -2.5697151     -2.5697151     -2.5697151    
     22300   9.0377386e-08 -2.5777426     -2.5777426     -2.5777426     -2.5777426    
     22400   1.047309e-07  -2.5863331     -2.5863331     -2.5863331     -2.5863331    
     22500   1.2049105e-07 -2.5955148     -2.5955148     -2.5955148     -2.5955148    
     22600   1.3768365e-07 -2.6053118     -2.6053118     -2.6053118     -2.6053118    
     22700   1.5633289e-07 -2.6157454     -2.6157454     -2.6157454     -2.6157454    
     22800   1.7646087e-07 -2.6268375     -2.6268375     -2.6268375     -2.6268375    
     22900   1.9808425e-07 -2.6386137     -2.6386137     -2.6386137     -2.6386137    
     23000   2.2121115e-07 -2.6511024     -2.6511024     -2.6511024     -2.6511024    
     23100   2.4583965e-07 -2.6643302     -2.6643302     -2.6643302     -2.6643302    
     23200   2.7195651e-07 -2.678336      -2.678336      -2.678336      -2.678336     
     23300   2.9953549e-07 -2.6934773     -2.6934773     -2.6934773     -2.6934773    
     23400   3.2853628e-07 -2.7094153     -2.7094153     -2.7094153     -2.7094153    
     23500   3.5890539e-07 -2.7261413     -2.7261413     -2.7261413     -2.7261413    
     23600   3.9057925e-07 -2.7436388     -2.7436388     -2.7436388     -2.7436388    
     23700   4.2348784e-07 -2.7618864     -2.7618864     -2.7618864     -2.7618864    
     23800   4.5755714e-07 -2.7808597     -2.7808597     -2.7808597     -2.7808597    
     23900   4.9271044e-07 -2.8005353     -2.8005353     -2.8005353     -2.8005353    
     24000   5.2886942e-07 -2.8208926     -2.8208926     -2.8208926     -2.8208926    
     24100   5.6595503e-07 -2.8419149     -2.8419149     -2.8419149     -2.8419149    
     24200   6.0388753e-07 -2.8635875     -2.8635875     -2.8635875     -2.8635875    
     24300   6.4258508e-07 -2.885895      -2.885895      -2.885895      -2.885895     
     24400   6.8196158e-07 -2.9088193     -2.9088193     -2.9088193     -2.9088193    
     24500   7.2192513e-07 -2.9323405     -2.9323405     -2.9323405     -2.9323405    
     24600   7.6237754e-07 -2.9564391     -2.9564391     -2.9564391     -2.9564391    
     24700   8.0321442e-07 -2.9810988     -2.9810988     -2.9810988     -2.9810988    
     24800   8.4432539e-07 -3.0063086     -3.0063086     -3.0063086     -3.0063086    
     24900   8.8559455e-07 -3.0320638     -3.0320638     -3.0320638     -3.0320638    
     25000   9.2690186e-07 -3.0583647     -3.0583647     -3.0583647     -3.0583647    
     25100   9.6812534e-07 -3.0852155     -3.0852155     -3.0852155     -3.0852155    
     25200   1.0091433e-06 -3.1126219     -3.1126219     -3.1126219     -3.1126219    
     25300   1.0498359e-06 -3.1405884     -3.1405884     -3.1405884     -3.1405884    
     25400   1.0900852e-06 -3.1691161     -3.1691161     -3.1691161     -3.1691161    
     25500   1.1297762e-06 -3.1982005     -3.1982005     -3.1982005     -3.1982005    
     25600   1.1687961e-06 -3.227832      -3.227832      -3.227832      -3.227832     
     25700   1.2070344e-06 -3.257997      -3.257997      -3.257997      -3.257997     
     25800   1.2443825e-06 -3.2886792     -3.2886792     -3.2886792     -3.2886792    
     25900   1.2807322e-06 -3.3198613     -3.3198613     -3.3198613     -3.3198613    
     26000   1.3159765e-06 -3.3515247     -3.3515247     -3.3515247     -3.3515247    
     26100   1.3500098e-06 -3.3836487     -3.3836487     -3.3836487     -3.3836487    
     26200   1.3827298e-06 -3.4162094     -3.4162094     -3.4162094     -3.4162094    
     26300   1.4140396e-06 -3.449179      -3.449179      -3.449179      -3.449179     
     26400   1.4438488e-06 -3.4825256     -3.4825256     -3.4825256     -3.4825256    
     26500   1.4720759e-06 -3.5162134     -3.5162134     -3.5162134     -3.5162134    
     26600   1.4986491e-06 -3.5502047     -3.5502047     -3.5502047     -3.5502047    
     26700   1.5235069e-06 -3.5844612     -3.5844612     -3.5844612     -3.5844612    
     26800   1.5465982e-06 -3.6189462     -3.6189462     -3.6189462     -3.6189462    
     26900   1.567881e-06  -3.6536265     -3.6536265     -3.6536265     -3.6536265    
     27000   1.5873207e-06 -3.6884733     -3.6884733     -3.6884733     -3.6884733    
     27100   1.6048891e-06 -3.7234623     -3.7234623     -3.7234623     -3.7234623    
     27200   1.6205631e-06 -3.758573      -3.758573      -3.758573      -3.758573     
     27300   1.6343242e-06 -3.7937872     -3.7937872     -3.7937872     -3.7937872    
     27400   1.6461586e-06 -3.8290884     -3.8290884     -3.8290884     -3.8290884    
     27500   1.6560567e-06 -3.8644611     -3.8644611     -3.8644611     -3.8644611    
     27600   1.6640149e-06 -3.899891      -3.899891      -3.899891      -3.899891     
     27700   1.6700356e-06 -3.9353655     -3.9353655     -3.9353655     -3.9353655    
     27800   1.6741283e-06 -3.9708734     -3.9708734     -3.9708734     -3.9708734    
     27900   1.6763095e-06 -4.0064055     -4.0064055     -4.0064055     -4.0064055    
     28000   1.6766027e-06 -4.0419539     -4.0419539     -4.0419539     -4.0419539    
     28100   1.6750373e-06 -4.077511      -4.077511      -4.077511      -4.077511     
     28200   1.6716485e-06 -4.1130688     -4.1130688     -4.1130688     -4.1130688    
     28300   1.666476e-06  -4.148617      -4.148617      -4.148617      -4.148617     
     28400   1.6595633e-06 -4.1841425     -4.1841425     -4.1841425     -4.1841425    
     28500   1.6509568e-06 -4.2196283     -4.2196283     -4.2196283     -4.2196283    
     28600   1.6407058e-06 -4.2550543     -4.2550543     -4.2550543     -4.2550543    
     28700   1.6288629e-06 -4.2903975     -4.2903975     -4.2903975     -4.2903975    
     28800   1.6154837e-06 -4.3256335     -4.3256335     -4.3256335     -4.3256335    
     28900   1.6006277e-06 -4.3607374     -4.3607374     -4.3607374     -4.3607374    
     29000   1.5843585e-06 -4.3956842     -4.3956842     -4.3956842     -4.3956842    
     29100   1.5667441e-06 -4.4304495     -4.4304495     -4.4304495     -4.4304495    
     29200   1.5478572e-06 -4.4650097     -4.4650097     -4.4650097     -4.4650097    
     29300   1.5277745e-06 -4.4993416     -4.4993416     -4.4993416     -4.4993416    
     29400   1.5065765e-06 -4.5334229     -4.5334229     -4.5334229     -4.5334229    
     29500   1.4843462e-06 -4.5672325     -4.5672325     -4.5672325     -4.5672325    
     29600   1.4611684e-06 -4.6007505     -4.6007505     -4.6007505     -4.6007505    
     29700   1.4371284e-06 -4.6339595     -4.6339595     -4.6339595     -4.6339595    
     29800   1.412311e-06  -4.6668452     -4.6668452     -4.6668452     -4.6668452    
     29900   1.3868001e-06 -4.69941       -4.69941       -4.69941       -4.69941      
     30000   1.3606774e-06 -4.7317632     -4.7317632     -4.7317632     -4.7317632    
     30100   1.3340227e-06 -4.76377       -4.76377       -4.76377       -4.76377      
     30200   1.3069138e-06 -4.7954293     -4.7954293     -4.7954293     -4.7954293    
     30300   1.2794267e-06 -4.826742      -4.826742      -4.826742      -4.826742     
     30400   1.2516354e-06 -4.8577097     -4.8577097     -4.8577097     -4.8577097    
     30500   1.2236126e-06 -4.8883345     -4.8883345     -4.8883345     -4.8883345    
     30600   1.1954291e-06 -4.9186182     -4.9186182     -4.9186182     -4.9186182    
     30700   1.1671536e-06 -4.9485623     -4.9485623     -4.9485623     -4.9485623    
     30800   1.1388527e-06 -4.9781677     -4.9781677     -4.9781677     -4.9781677    
     30900   1.1105897e-06 -5.0074351     -5.0074351     -5.0074351     -5.0074351    
     31000   1.0824248e-06 -5.0363645     -5.0363645     -5.0363645     -5.0363645    
     31100   1.0544142e-06 -5.0649552     -5.0649552     -5.0649552     -5.0649552    
     31200   1.0266103e-06 -5.0932055     -5.0932055     -5.0932055     -5.0932055    
     31300   9.9906169e-07 -5.1211123     -5.1211123     -5.1211123     -5.1211123    
     31400   9.7181373e-07 -5.1486876     -5.1486876     -5.1486876     -5.1486876    
     31500   9.4490879e-07 -5.1759111     -5.1759111     -5.1759111     -5.1759111    
     31600   9.1838696e-07 -5.2027732     -5.2027732     -5.2027732     -5.2027732    
     31700   8.9228652e-07 -5.2292668     -5.2292668     -5.2292668     -5.2292668    
     31800   8.6664417e-07 -5.2553847     -5.2553847     -5.2553847     -5.2553847    
     31900   8.4149512e-07 -5.2811209     -5.2811209     -5.2811209     -5.2811209    
     32000   8.1687287e-07 -5.3064709     -5.3064709     -5.3064709     -5.3064709    
     32100   7.9281087e-07 -5.3314323     -5.3314323     -5.3314323     -5.3314323    
     32200   7.693436e-07  -5.3560044     -5.3560044     -5.3560044     -5.3560044    
     32300   7.4649823e-07 -5.3801886     -5.3801886     -5.3801886     -5.3801885    
     32400   7.2430185e-07 -5.4039883     -5.4039883     -5.4039883     -5.4039876    
     32500   7.0277838e-07 -5.4274085     -5.4274085     -5.4274085     -5.4274072    
     32600   6.8194371e-07 -5.4504561     -5.4504561     -5.4504561     -5.450454     
     32700   6.6180956e-07 -5.4731397     -5.4731397     -5.4731397     -5.4731309    
     32800   6.4238471e-07 -5.4954696     -5.4954696     -5.4954696     -5.4954407    
     32900   6.2367538e-07 -5.517458      -5.517458      -5.517458      -5.5173896    
     33000   6.0568719e-07 -5.5391181     -5.5391181     -5.5391181     -5.53899      
     33100   5.8842608e-07 -5.5604644     -5.5604644     -5.5604644     -5.5602642    
     33200   5.7189792e-07 -5.5815118     -5.5815118     -5.5815118     -5.5812347    
     33300   5.5610452e-07 -5.6022749     -5.6022749     -5.6022749     -5.6019247    
     33400   5.410414e-07  -5.6227679     -5.6227679     -5.6227677     -5.6223564    
     33500   5.2670461e-07 -5.6430039     -5.6430039     -5.643003      -5.6425457    
     33600   5.13089e-07   -5.6629947     -5.6629947     -5.6629934     -5.6625036    
     33700   5.0018639e-07 -5.6827507     -5.6827507     -5.6827475     -5.6822421    
     33800   4.8798924e-07 -5.7022812     -5.7022812     -5.7022682     -5.7017757    
     33900   4.7648926e-07 -5.7215944     -5.7215944     -5.7215589     -5.7211162    
     34000   4.6567529e-07 -5.7406979     -5.7406979     -5.7406264     -5.7402717    
     34100   4.5554038e-07 -5.7595982     -5.7595982     -5.7594773     -5.759254     
     34200   4.4607339e-07 -5.7783018     -5.7783018     -5.7781229     -5.7780764    
     34300   4.3726399e-07 -5.7968143     -5.7968143     -5.7965761     -5.7967496    
     34400   4.2910401e-07 -5.8151413     -5.8151413     -5.8148484     -5.8152817    
     34500   4.2158403e-07 -5.8332884     -5.8332884     -5.8329516     -5.8336748    
     34600   4.1469569e-07 -5.8512614     -5.8512614     -5.8508964     -5.8519314    
     34700   4.0843328e-07 -5.8690666     -5.8690666     -5.8686918     -5.8700571    
     34800   4.0278964e-07 -5.8867115     -5.8867115     -5.8863453     -5.8880528    
     34900   3.9775583e-07 -5.9042045     -5.9042045     -5.9038622     -5.9059244    
     35000   3.9332306e-07 -5.9215558     -5.9215558     -5.9212498     -5.9236864    
     35100   3.8948492e-07 -5.9387768     -5.9387768     -5.938519      -5.9413578    
     35200   3.8623515e-07 -5.9558803     -5.9558803     -5.9556901     -5.9589542    
     35300   3.8356577e-07 -5.97288       -5.97288       -5.972785      -5.9764919    
     35400   3.8146978e-07 -5.9897909     -5.9897909     -5.9898219     -5.9939894    
     35500   3.7994065e-07 -6.0066279     -6.0066279     -6.0068188     -6.0114634    
     35600   3.7896927e-07 -6.0234067     -6.0234067     -6.0237929     -6.0289317    
     35700   3.7854838e-07 -6.0401425     -6.0401425     -6.0407595     -6.046413     
     35800   3.7867504e-07 -6.0568506     -6.0568506     -6.0577305     -6.0639244    
     35900   3.7934403e-07 -6.073546      -6.073546      -6.0747141     -6.0814828    
     36000   3.8055014e-07 -6.0902428     -6.0902428     -6.0917191     -6.0991062    
     36100   3.822875e-07  -6.1069545     -6.1069545     -6.1087535     -6.1168173    
     36200   3.8455059e-07 -6.1236936     -6.1236936     -6.1258264     -6.1346395    
     36300   3.8733451e-07 -6.1404712     -6.1404712     -6.1429523     -6.1525926    
     36400   3.9063465e-07 -6.1572973     -6.1572973     -6.1601456     -6.1706942    
     36500   3.9444979e-07 -6.1741803     -6.1741803     -6.1774156     -6.1889579    
     36600   3.9877462e-07 -6.1911275     -6.1911275     -6.1947708     -6.2073907    
     36700   4.0360209e-07 -6.2081447     -6.2081444     -6.2122229     -6.2259974    
     36800   4.0892611e-07 -6.2252372     -6.2252362     -6.2297856     -6.2447864    
     36900   4.1474582e-07 -6.2424093     -6.2424078     -6.2474694     -6.2637675    
     37000   4.2105987e-07 -6.2596652     -6.2596616     -6.2652795     -6.2829469    
     37100   4.278675e-07  -6.2770089     -6.2769964     -6.2832236     -6.3023256    
     37200   4.3516486e-07 -6.2944444     -6.2944137     -6.3013104     -6.3219024    
     37300   4.4294786e-07 -6.311976      -6.3119204     -6.3195489     -6.3416787    
     37400   4.512123e-07  -6.3296083     -6.3295241     -6.337952      -6.3616602    
     37500   4.5995765e-07 -6.3473462     -6.347229      -6.356533      -6.3818527    
     37600   4.6918335e-07 -6.3651953     -6.3650404     -6.3753017     -6.4022577    
     37700   4.7888891e-07 -6.3831614     -6.382968      -6.3942651     -6.422876     
     37800   4.8907018e-07 -6.4012511     -6.4010212     -6.4134308     -6.4437102    
     37900   4.9972207e-07 -6.4194716     -6.4192109     -6.4328105     -6.4647635    
     38000   5.1084661e-07 -6.4378304     -6.4375485     -6.4524158     -6.4860362    
     38100   5.2245021e-07 -6.4563352     -6.4560448     -6.4722554     -6.5075297    
     38200   5.3453551e-07 -6.474994      -6.4747086     -6.4923378     -6.5292546    
     38300   5.4709721e-07 -6.4938146     -6.4935478     -6.5126746     -6.551226     
     38400   5.6012683e-07 -6.5128043     -6.5125712     -6.5332754     -6.5734544    
     38500   5.7361412e-07 -6.5319698     -6.5317869     -6.5541463     -6.5959487    
     38600   5.875481e-07  -6.5513169     -6.5512006     -6.575295      -6.6187201    
     38700   6.0191931e-07 -6.5708504     -6.5708162     -6.5967316     -6.6417805    
     38800   6.1671807e-07 -6.5905742     -6.5906376     -6.6184627     -6.6651425    
     38900   6.3193476e-07 -6.6104909     -6.6106737     -6.6404881     -6.68882      
     39000   6.4755602e-07 -6.6306022     -6.6309304     -6.6628027     -6.7128271    
     39100   6.6356716e-07 -6.6509087     -6.651408      -6.6854023     -6.7371747    
     39200   6.799606e-07  -6.6714099     -6.6721063     -6.7082886     -6.7618692    
     39300   6.9673229e-07 -6.6921045     -6.6930242     -6.7314662     -6.7869147    
     39400   7.1387242e-07 -6.7129904     -6.7141597     -6.7549369     -6.8123276    
     39500   7.3137322e-07 -6.7340645     -6.7355102     -6.7787026     -6.8381295    
     39600   7.492261e-07  -6.7553235     -6.75707       -6.8027643     -6.8643258    
     39700   7.6743034e-07 -6.7767638     -6.778833      -6.8271184     -6.8909078    
     39800   7.8598949e-07 -6.7983813     -6.8007937     -6.8517552     -6.917865     
     39900   8.0490221e-07 -6.8201725     -6.8229454     -6.8766684     -6.9451934    
     40000   8.2415688e-07 -6.8421338     -6.8452858     -6.901861      -6.9728915    
     40100   8.4374097e-07 -6.864262      -6.867816      -6.9273366     -7.0009554    
     40200   8.6364555e-07 -6.8865544     -6.8905339     -6.9530937     -7.0293789    
     40300   8.838587e-07  -6.9090086     -6.9134391     -6.9791319     -7.0581537    
     40400   9.0436474e-07 -6.9316229     -6.9365371     -7.0054542     -7.0872714    
     40500   9.2515314e-07 -6.9543954     -6.9598375     -7.0320667     -7.1167306    
     40600   9.4621992e-07 -6.977325      -6.9833475     -7.0589795     -7.1465334    
     40700   9.6755576e-07 -7.0004103     -7.007071      -7.086205      -7.1766789    
     40800   9.8914267e-07 -7.0236502     -7.0310135     -7.113751      -7.2071597    
     40900   1.0109639e-06 -7.0470434     -7.0551756     -7.1416188     -7.2379692    
     41000   1.0330104e-06 -7.0705884     -7.0795617     -7.1698053     -7.2691075    
     41100   1.055268e-06  -7.0942835     -7.1041794     -7.1983254     -7.300579     
     41200   1.0777262e-06 -7.1181264     -7.1290332     -7.227206      -7.3323881    
     41300   1.100373e-06  -7.1421142     -7.154123      -7.2564562     -7.364538     
     41400   1.1231977e-06 -7.1662434     -7.1794488     -7.2860681     -7.3970305    
     41500   1.1461923e-06 -7.1905095     -7.2050153     -7.3160319     -7.4298653    
     41600   1.1693586e-06 -7.2149077     -7.2308283     -7.3463446     -7.4630463    
     41700   1.1926936e-06 -7.2394319     -7.2568943     -7.377007      -7.4965838    
     41800   1.2161847e-06 -7.2640758     -7.283217      -7.408017      -7.5304875    
     41900   1.2398179e-06 -7.2888322     -7.3097906     -7.4393692     -7.5647667    
     42000   1.2635904e-06 -7.3136938     -7.3366033     -7.4710521     -7.5994229    
     42100   1.2874997e-06 -7.3386526     -7.3636497     -7.5030557     -7.6344459    
     42200   1.3115362e-06 -7.3637008     -7.3909301     -7.5353759     -7.6698255    
     42300   1.3356922e-06 -7.3888302     -7.4184429     -7.5680103     -7.7055643    
     42400   1.3599513e-06 -7.414033      -7.4461781     -7.6009523     -7.7416659    
     42500   1.3843042e-06 -7.4393014     -7.4741209     -7.6341917     -7.7781333    
     42600   1.4087525e-06 -7.464628      -7.5022626     -7.6677208     -7.8149709    
     42700   1.433296e-06  -7.4900056     -7.5306011     -7.7015333     -7.8521774    
     42800   1.4579308e-06 -7.5154277     -7.5591331     -7.7356249     -7.889754     
     42900   1.4826449e-06 -7.5408882     -7.5878529     -7.7699976     -7.9277095    
     43000   1.5074396e-06 -7.5663815     -7.6167496     -7.8046519     -7.9660526    
     43100   1.5323522e-06 -7.5919026     -7.6458053     -7.8395834     -8.0047873    
     43200   1.5574191e-06 -7.6174466     -7.6750038     -7.8747872     -8.043909     
     43300   1.5826553e-06 -7.6430093     -7.704343      -7.9102672     -8.0834101    
     43400   1.608076e-06  -7.6685867     -7.7338334     -7.9460305     -8.1232884    
     43500   1.6336848e-06 -7.6941747     -7.7634818     -7.9820849     -8.163539     
     43600   1.6594854e-06 -7.7197695     -7.793284      -8.0184353     -8.2041504    
     43700   1.6854811e-06 -7.745367      -7.8232363     -8.0550736     -8.2451171    
     43800   1.7116722e-06 -7.7709631     -7.8533424     -8.0919889     -8.2864464    
     43900   1.7380708e-06 -7.7965535     -7.8836122     -8.1291827     -8.3281466    
     44000   1.7646824e-06 -7.8221334     -7.9140624     -8.1666648     -8.3702187    
     44100   1.7915041e-06 -7.8476979     -7.9447062     -8.2044417     -8.4126654    
     44200   1.8185378e-06 -7.8732418     -7.9755475     -8.2425213     -8.4554912    
     44300   1.8457823e-06 -7.8987595     -8.0065827     -8.2809053     -8.4986984    
     44400   1.8732376e-06 -7.9242452     -8.0378114     -8.3195929     -8.5422886    
     44500   1.9009024e-06 -7.9496926     -8.0692574     -8.3585942     -8.5862653    
     44600   1.9287771e-06 -7.9750956     -8.1009455     -8.3979234     -8.6306258    
     44700   1.9568796e-06 -8.0004479     -8.1328733     -8.4375902     -8.6753713    
     44800   1.9852267e-06 -8.0257432     -8.1650252     -8.4775966     -8.7205038    
     44900   2.0138173e-06 -8.0509754     -8.1973908     -8.5179355     -8.7660264    
     45000   2.0426543e-06 -8.0761387     -8.2299659     -8.5585966     -8.8119535    
     45100   2.0717448e-06 -8.1012276     -8.2627482     -8.5995784     -8.8582997    
     45200   2.1010968e-06 -8.1262371     -8.295733      -8.6408768     -8.9050662    
     45300   2.1307207e-06 -8.1511626     -8.3289113     -8.6824783     -8.952247     
     45400   2.1606216e-06 -8.176         -8.362268      -8.7243759     -8.9998355    
     45500   2.1908108e-06 -8.2007459     -8.3957877     -8.7665774     -9.0478269    
     45600   2.2213082e-06 -8.2253973     -8.4294622     -8.8090894     -9.0962176    
     45700   2.2521283e-06 -8.2499518     -8.4632881     -8.8519107     -9.145009     
     45800   2.2832822e-06 -8.2744073     -8.4972575     -8.8950383     -9.1941982    
     45900   2.3147632e-06 -8.2987623     -8.531359      -8.9384703     -9.2437813    
     46000   2.3465754e-06 -8.3230156     -8.5655896     -8.9822085     -9.2937535    
     46100   2.3787288e-06 -8.3471663     -8.5999519     -9.0262548     -9.3441103    
     46200   2.4112412e-06 -8.3712136     -8.6344487     -9.0706087     -9.3948508    
     46300   2.4441202e-06 -8.3951568     -8.6690821     -9.1152687     -9.4459741    
     46400   2.4773664e-06 -8.4189955     -8.7038542     -9.160238      -9.4974773    
     46500   2.5109832e-06 -8.4427289     -8.7387691     -9.2055252     -9.5493598    
     46600   2.5449914e-06 -8.4663562     -8.7738282     -9.2511356     -9.6016247    
     46700   2.579414e-06  -8.4898767     -8.80903       -9.2970756     -9.6542811    
     46800   2.6142781e-06 -8.5132893     -8.8443792     -9.3433586     -9.7073395    
     46900   2.6495975e-06 -8.5365929     -8.8798868     -9.3899934     -9.7608033    
     47000   2.6853869e-06 -8.5597861     -8.915567      -9.4369751     -9.814665     
     47100   2.7216669e-06 -8.5828678     -8.9514302     -9.4842958     -9.8689112    
     47200   2.7584517e-06 -8.6058365     -8.9874749     -9.5319521     -9.9235345    
     47300   2.7957656e-06 -8.6286909     -9.0236916     -9.579942      -9.978542     
     47400   2.8336304e-06 -8.6514298     -9.0600726     -9.6282649     -10.033947    
     47500   2.8720595e-06 -8.6740522     -9.0966179     -9.676922      -10.089757    
     47600   2.9110599e-06 -8.6965572     -9.1333398     -9.7259158     -10.145978    
     47700   2.9506321e-06 -8.7189442     -9.17025       -9.7752484     -10.202619    
     47800   2.990773e-06  -8.7412131     -9.2073578     -9.824923      -10.259692    
     47900   3.0314775e-06 -8.763364      -9.2446643     -9.8749382     -10.317211    
     48000   3.0727446e-06 -8.7853976     -9.2821621     -9.9252891     -10.375187    
     48100   3.1145746e-06 -8.807315      -9.3198445     -9.9759731     -10.433624    
     48200   3.1569733e-06 -8.8291174     -9.3577154     -10.026988     -10.492518    
     48300   3.1999413e-06 -8.8508069     -9.3957874     -10.078334     -10.551857    
     48400   3.243476e-06  -8.8723857     -9.4340674     -10.130014     -10.611634    
     48500   3.2875839e-06 -8.8938562     -9.4725493     -10.182031     -10.671843    
     48600   3.3322818e-06 -8.9152212     -9.5112224     -10.23439      -10.732479    
     48700   3.377592e-06  -8.9364838     -9.5500805     -10.287095     -10.793538    
     48800   3.4235363e-06 -8.957647      -9.5891272     -10.340142     -10.855019    
     48900   3.4701214e-06 -8.9787139     -9.6283737     -10.393527     -10.91692     
     49000   3.5173532e-06 -8.9996878     -9.6678294     -10.447244     -10.979234    
     49100   3.5652329e-06 -9.0205717     -9.7074906     -10.501287     -11.041952    
     49200   3.6137624e-06 -9.0413686     -9.7473481     -10.55566      -11.105071    
     49300   3.6629506e-06 -9.0620814     -9.7873994     -10.610377     -11.168598    
     49400   3.712811e-06  -9.0827128     -9.8276463     -10.66545      -11.232539    
     49500   3.7633584e-06 -9.1032654     -9.8680948     -10.720888     -11.296892    
     49600   3.8146001e-06 -9.1237415     -9.9087544     -10.776703     -11.361653    
     49700   3.8665406e-06 -9.1441435     -9.9496285     -10.832901     -11.426822    
     49800   3.9191804e-06 -9.1644734     -9.9907125     -10.889488     -11.492403    
     49900   3.9725064e-06 -9.1847335     -10.032002     -10.946469     -11.558392    
     50000   4.0265078e-06 -9.2049257     -10.073506     -11.003853     -11.624781    
Loop time of 22.9271 on 1 procs for 30000 steps with 9576 atoms

Performance: 11305406.065 tau/day, 1308.496 timesteps/s, 12.530 Matom-step/s
99.7% CPU use with 1 MPI tasks x no OpenMP threads

MPI task timing breakdown:
Section |  min time  |  avg time  |  max time  |%varavg| %total
---------------------------------------------------------------
Pair    | 2.5727     | 2.5727     | 2.5727     |   0.0 | 11.22
Bond    | 16.951     | 16.951     | 16.951     |   0.0 | 73.94
Neigh   | 0.25843    | 0.25843    | 0.25843    |   0.0 |  1.13
Comm    | 0.037787   | 0.037787   | 0.037787   |   0.0 |  0.16
Output  | 0.17723    | 0.17723    | 0.17723    |   0.0 |  0.77
Modify  | 2.4504     | 2.4504     | 2.4504     |   0.0 | 10.69
Other   |            | 0.4793     |            |       |  2.09

Nlocal:           9576 ave        9576 max        9576 min
Histogram: 1 0 0 0 0 0 0 0 0 0
Nghost:              0 ave           0 max           0 min
Histogram: 1 0 0 0 0 0 0 0 0 0
Neighs:          44684 ave       44684 max       44684 min
Histogram: 1 0 0 0 0 0 0 0 0 0

Total # of neighbors = 44684
Ave neighs/atom = 4.666249
Ave special neighs/atom = 11.495405
Neighbor list builds = 62
Dangerous builds = 0

# hold load

unfix           3
fix             3 load addforce 0.0 0.0 -0.0005
run             50000
Generated 0 of 6 mixed pair_coeff terms from geometric mixing rule
Per MPI rank memory allocation (min/avg/max) = 22.14 | 22.14 | 22.14 Mbytes
   Step         KinEng        c_zmin1        c_zmin2        c_zmin3        c_zmin4    
     50000   4.0265078e-06 -9.2049257     -10.073506     -11.003853     -11.624781    
     50100   4.078797e-06  -9.2250318     -10.115223     -11.061622     -11.691546    
     50200   4.1270084e-06 -9.2449811     -10.157097     -11.119697     -11.758608    
     50300   4.1711893e-06 -9.2647179     -10.199076     -11.178013     -11.825901    
     50400   4.2114017e-06 -9.2842039     -10.241117     -11.236524     -11.89339     
     50500   4.2477072e-06 -9.3034085     -10.283187     -11.295191     -11.961052    
     50600   4.2801682e-06 -9.3223057     -10.325266     -11.353975     -12.02887     
     50700   4.3088438e-06 -9.3408726     -10.367334     -11.412844     -12.096827    
     50800   4.3338082e-06 -9.3590897     -10.409371     -11.471771     -12.164895    
     50900   4.3551278e-06 -9.3769407     -10.451355     -11.530744     -12.233048    
     51000   4.3728717e-06 -9.3944117     -10.493273     -11.589752     -12.301263    
     51100   4.387118e-06  -9.4114896     -10.535111     -11.648783     -12.369533    
     51200   4.3979324e-06 -9.4281581     -10.576852     -11.707826     -12.437854    
     51300   4.405391e-06  -9.4443998     -10.618478     -11.766867     -12.506225    
     51400   4.4095986e-06 -9.4602071     -10.659965     -11.825894     -12.574638    
     51500   4.4106676e-06 -9.4755859     -10.701294     -11.884892     -12.64309     
     51600   4.4087216e-06 -9.4905472     -10.742454     -11.943846     -12.711578    
     51700   4.4038781e-06 -9.505097      -10.783448     -12.00275      -12.7801      
     51800   4.3962565e-06 -9.519232      -10.824279     -12.061602     -12.848658    
     51900   4.3859809e-06 -9.5329408     -10.86494      -12.120398     -12.917251    
     52000   4.3731813e-06 -9.5462073     -10.905422     -12.179122     -12.985875    
     52100   4.3579929e-06 -9.5590133     -10.945716     -12.237752     -13.05452     
     52200   4.3405399e-06 -9.5713407     -10.985817     -12.296262     -13.123175    
     52300   4.3209453e-06 -9.5831701     -11.025719     -12.354633     -13.191817    
     52400   4.2993304e-06 -9.5944811     -11.065401     -12.412855     -13.260421    
     52500   4.2758022e-06 -9.6052526     -11.104835     -12.470917     -13.32896     
     52600   4.2504626e-06 -9.6154653     -11.144002     -12.528802     -13.397392    
     52700   4.2234264e-06 -9.6251006     -11.182886     -12.586499     -13.465677    
     52800   4.1947978e-06 -9.6341381     -11.221469     -12.643995     -13.533785    
     52900   4.1646861e-06 -9.6425532     -11.259729     -12.701274     -13.601698    
     53000   4.1331936e-06 -9.650319      -11.297644     -12.758321     -13.669405    
     53100   4.1004239e-06 -9.6574113     -11.335194     -12.815117     -13.7369      
     53200   4.0664734e-06 -9.6638134     -11.37236      -12.87165      -13.804166    
     53300   4.0314247e-06 -9.6695187     -11.409125     -12.927908     -13.871183    
     53400   3.9953609e-06 -9.6745308     -11.44547      -12.983882     -13.937932    
     53500   3.958361e-06  -9.678861      -11.481378     -13.039563     -14.004398    
     53600   3.9204924e-06 -9.6825257     -11.516831     -13.094946     -14.070565    
     53700   3.8818222e-06 -9.6855446     -11.55182      -13.150016     -14.136414    
     53800   3.8424179e-06 -9.6879389     -11.586341     -13.20475      -14.201925    
     53900   3.802351e-06  -9.6897295     -11.620382     -13.259122     -14.267094    
     54000   3.7616954e-06 -9.6909351     -11.653935     -13.313107     -14.331924    
     54100   3.7205096e-06 -9.6915723     -11.686988     -13.366686     -14.396421    
     54200   3.6788456e-06 -9.6916562     -11.719539     -13.419853     -14.460587    
     54300   3.6367529e-06 -9.6912028     -11.751587     -13.472603     -14.524419    
     54400   3.5942808e-06 -9.6902301     -11.78313      -13.524935     -14.587911    
     54500   3.5514841e-06 -9.6887575     -11.814165     -13.576852     -14.651062    
     54600   3.5084298e-06 -9.6868041     -11.844692     -13.628353     -14.713879    
     54700   3.4651784e-06 -9.6843863     -11.874712     -13.679436     -14.776371    
     54800   3.4217746e-06 -9.6815167     -11.904226     -13.730098     -14.83854     
     54900   3.3782546e-06 -9.678204      -11.933234     -13.78033      -14.900389    
     55000   3.3346481e-06 -9.6744535     -11.961736     -13.830127     -14.961924    
     55100   3.2909881e-06 -9.6702679     -11.989737     -13.879469     -15.023152    
     55200   3.2473053e-06 -9.6656485     -12.017245     -13.928333     -15.084074    
     55300   3.2036292e-06 -9.6605962     -12.044264     -13.976706     -15.144683    
     55400   3.1599879e-06 -9.6551133     -12.070797     -14.024589     -15.20497     
     55500   3.1164123e-06 -9.6492041     -12.096845     -14.071986     -15.264927    
     55600   3.0729335e-06 -9.6428755     -12.122406     -14.118904     -15.324555    
     55700   3.0295858e-06 -9.6361363     -12.147478     -14.165353     -15.383856    
     55800   2.9863981e-06 -9.6289973     -12.172059     -14.211339     -15.442837    
     55900   2.9433934e-06 -9.6214706     -12.196146     -14.256854     -15.501503    
     56000   2.9006069e-06 -9.6135705     -12.219735     -14.301885     -15.559855    
     56100   2.8580637e-06 -9.6053146     -12.242824     -14.346426     -15.617887    
     56200   2.8157841e-06 -9.5967246     -12.265408     -14.390484     -15.675588    
     56300   2.7737823e-06 -9.5878265     -12.287481     -14.434061     -15.732951    
     56400   2.7320692e-06 -9.57865       -12.309038     -14.47716      -15.789968    
     56500   2.6906601e-06 -9.5692276     -12.330071     -14.519787     -15.84663     
     56600   2.64957e-06   -9.5595926     -12.350575     -14.561944     -15.902927    
     56700   2.6088072e-06 -9.5497782     -12.370547     -14.60363      -15.958858    
     56800   2.5683744e-06 -9.5398154     -12.389981     -14.644843     -16.014425    
     56900   2.5282818e-06 -9.5297323     -12.408875     -14.685587     -16.069637    
     57000   2.4885392e-06 -9.5195536     -12.427228     -14.725871     -16.124497    
     57100   2.4491523e-06 -9.5093009     -12.445039     -14.765701     -16.179012    
     57200   2.4101321e-06 -9.4989936     -12.462311     -14.805087     -16.23318     
     57300   2.3714907e-06 -9.4886498     -12.479044     -14.84404      -16.286992    
     57400   2.3332399e-06 -9.4782868     -12.49524      -14.882568     -16.340447    
     57500   2.2953888e-06 -9.4679208     -12.510901     -14.920681     -16.393547    
     57600   2.2579441e-06 -9.4575669     -12.526028     -14.958383     -16.446294    
     57700   2.2209217e-06 -9.4472381     -12.540624     -14.995679     -16.498686    
     57800   2.1843408e-06 -9.4369452     -12.55469      -15.032568     -16.550724    
     57900   2.148211e-06  -9.4266967     -12.568233     -15.069047     -16.602411    
     58000   2.1125489e-06 -9.4164992     -12.58126      -15.105109     -16.653755    
     58100   2.0773723e-06 -9.4063586     -12.59378      -15.140752     -16.704763    
     58200   2.0426985e-06 -9.3962804     -12.605798     -15.175974     -16.755442    
     58300   2.0085419e-06 -9.3862716     -12.617325     -15.210773     -16.805792    
     58400   1.9749169e-06 -9.376341      -12.628369     -15.24515      -16.855808    
     58500   1.9418404e-06 -9.3664996     -12.63894      -15.279106     -16.905489    
     58600   1.9093242e-06 -9.3567612     -12.649046     -15.312642     -16.954835    
     58700   1.8773791e-06 -9.3471412     -12.658696     -15.34576      -17.003847    
     58800   1.8460246e-06 -9.3376564     -12.667897     -15.37846      -17.052526    
     58900   1.8152788e-06 -9.328325      -12.676657     -15.410738     -17.10088     
     59000   1.7851552e-06 -9.3191656     -12.684982     -15.442593     -17.148921    
     59100   1.755666e-06  -9.3101975     -12.692877     -15.474026     -17.196659    
     59200   1.7268136e-06 -9.3014405     -12.700347     -15.505042     -17.2441      
     59300   1.6985996e-06 -9.2929146     -12.707394     -15.535645     -17.291248    
     59400   1.6710291e-06 -9.2846391     -12.714019     -15.565835     -17.33811     
     59500   1.6441075e-06 -9.2766326     -12.720223     -15.595615     -17.384691    
     59600   1.6178416e-06 -9.2689115     -12.726005     -15.624992     -17.43099     
     59700   1.5922386e-06 -9.2614901     -12.731366     -15.653971     -17.477       
     59800   1.5673001e-06 -9.2543795     -12.736306     -15.682555     -17.522719    
     59900   1.5430251e-06 -9.2475875     -12.740826     -15.710746     -17.568159    
     60000   1.5194111e-06 -9.2411192     -12.744926     -15.738547     -17.613333    
     60100   1.4964539e-06 -9.2349771     -12.748607     -15.765961     -17.658252    
     60200   1.4741469e-06 -9.2291618     -12.751872     -15.792994     -17.702918    
     60300   1.452483e-06  -9.2236729     -12.754724     -15.81965      -17.74733     
     60400   1.4314582e-06 -9.2185089     -12.757166     -15.845934     -17.791492    
     60500   1.4110672e-06 -9.2136679     -12.759202     -15.871853     -17.835407    
     60600   1.3913025e-06 -9.2091471     -12.760837     -15.897411     -17.879083    
     60700   1.3721603e-06 -9.2049432     -12.762077     -15.922613     -17.922523    
     60800   1.3536465e-06 -9.2010525     -12.762928     -15.947463     -17.965735    
     60900   1.3357766e-06 -9.1974705     -12.763398     -15.971968     -18.008725    
     61000   1.3185562e-06 -9.1941931     -12.763493     -15.996134     -18.051505    
     61100   1.301988e-06  -9.1912164     -12.763221     -16.019967     -18.094083    
     61200   1.286069e-06  -9.1885375     -12.762591     -16.043469     -18.136466    
     61300   1.2707926e-06 -9.1861551     -12.761611     -16.066641     -18.178649    
     61400   1.2561515e-06 -9.1840693     -12.76029      -16.089484     -18.220615    
     61500   1.242133e-06  -9.1822818     -12.758637     -16.112003     -18.262351    
     61600   1.2287209e-06 -9.1807954     -12.756662     -16.134201     -18.303856    
     61700   1.2158979e-06 -9.1796136     -12.754377     -16.156083     -18.345144    
     61800   1.2036478e-06 -9.1787399     -12.751795     -16.177651     -18.38623     
     61900   1.1919547e-06 -9.1781775     -12.748922     -16.198906     -18.427133    
     62000   1.1808002e-06 -9.1779287     -12.745765     -16.219849     -18.467871    
     62100   1.1701663e-06 -9.1779946     -12.742326     -16.240481     -18.508455    
     62200   1.1600337e-06 -9.1783751     -12.738614     -16.260802     -18.548894    
     62300   1.1503837e-06 -9.1790684     -12.734634     -16.280813     -18.589193    
     62400   1.1411983e-06 -9.1800712     -12.730396     -16.300513     -18.629354    
     62500   1.1324607e-06 -9.1813786     -12.725909     -16.319903     -18.66938     
     62600   1.1241544e-06 -9.1829836     -12.721181     -16.338988     -18.709274    
     62700   1.116262e-06  -9.1848777     -12.716223     -16.35777      -18.749044    
     62800   1.108765e-06  -9.1870506     -12.711044     -16.376253     -18.788702    
     62900   1.1016477e-06 -9.1894902     -12.705655     -16.394443     -18.828258    
     63000   1.094896e-06  -9.1921835     -12.700068     -16.412344     -18.867726    
     63100   1.088493e-06  -9.1951168     -12.694294     -16.429963     -18.907115    
     63200   1.0824237e-06 -9.1982759     -12.688346     -16.447305     -18.946431    
     63300   1.0766757e-06 -9.201647      -12.682239     -16.464375     -18.985678    
     63400   1.0712329e-06 -9.2052162     -12.675991     -16.481176     -19.02486     
     63500   1.0660797e-06 -9.2089708     -12.669619     -16.497712     -19.06398     
     63600   1.0612034e-06 -9.2128981     -12.663141     -16.513984     -19.103042    
     63700   1.0565937e-06 -9.2169867     -12.656574     -16.529997     -19.142048    
     63800   1.0522386e-06 -9.2212255     -12.649931     -16.545756     -19.181       
     63900   1.0481256e-06 -9.2256043     -12.643227     -16.561263     -19.219895    
     64000   1.044244e-06  -9.2301138     -12.636472     -16.576521     -19.258733    
     64100   1.0405828e-06 -9.2347455     -12.62968      -16.591533     -19.297522    
     64200   1.0371318e-06 -9.2394921     -12.622862     -16.606302     -19.336268    
     64300   1.0338805e-06 -9.2443471     -12.616029     -16.620834     -19.374972    
     64400   1.0308178e-06 -9.2493047     -12.609192     -16.635132     -19.413635    
     64500   1.0279322e-06 -9.25436       -12.602365     -16.649201     -19.452262    
     64600   1.0252144e-06 -9.2595079     -12.595558     -16.663042     -19.490855    
     64700   1.0226584e-06 -9.2647432     -12.588783     -16.676659     -19.52942     
     64800   1.0202581e-06 -9.27006       -12.582049     -16.690053     -19.567963    
     64900   1.0180105e-06 -9.2754516     -12.575365     -16.703226     -19.606489    
     65000   1.0159116e-06 -9.2809101     -12.568738     -16.71618      -19.645       
     65100   1.0139582e-06 -9.2864265     -12.562176     -16.728919     -19.683496    
     65200   1.0121467e-06 -9.2919907     -12.555687     -16.741443     -19.721981    
     65300   1.010459e-06  -9.2975917     -12.549279     -16.753754     -19.760461    
     65400   1.0086577e-06 -9.3032175     -12.542962     -16.765856     -19.798942    
     65500   1.0066536e-06 -9.3088558     -12.536743     -16.77775      -19.837426    
     65600   1.004453e-06  -9.3144938     -12.530633     -16.789439     -19.875926    
     65700   1.0020671e-06 -9.3201185     -12.524639     -16.800925     -19.914483    
     65800   9.9950947e-07 -9.3257167     -12.518772     -16.812212     -19.953131    
     65900   9.968017e-07  -9.3312758     -12.51304      -16.823301     -19.99191     
     66000   9.9396747e-07 -9.3367833     -12.507452     -16.834197     -20.030859    
     66100   9.9102959e-07 -9.3422277     -12.502016     -16.844902     -20.069999    
     66200   9.8798593e-07 -9.347598      -12.496742     -16.855419     -20.109314    
     66300   9.8482957e-07 -9.3528845     -12.491638     -16.865751     -20.148757    
     66400   9.8156176e-07 -9.3580785     -12.486712     -16.875901     -20.18827     
     66500   9.7819021e-07 -9.3631727     -12.481972     -16.885873     -20.227801    
     66600   9.7472343e-07 -9.3681604     -12.477425     -16.895668     -20.267311    
     66700   9.712278e-07  -9.3730365     -12.473074     -16.905289     -20.306775    
     66800   9.6780941e-07 -9.3777962     -12.468926     -16.91474      -20.346176    
     66900   9.6449158e-07 -9.382436      -12.464981     -16.924023     -20.385501    
     67000   9.6129032e-07 -9.3869529     -12.461244     -16.93314      -20.424732    
     67100   9.5785756e-07 -9.3913442     -12.457714     -16.942095     -20.463854    
     67200   9.5371856e-07 -9.395608      -12.454395     -16.95089      -20.502856    
     67300   9.4891171e-07 -9.3997425     -12.451287     -16.959527     -20.541724    
     67400   9.4350467e-07 -9.4037458     -12.448392     -16.968007     -20.580497    
     67500   9.3758361e-07 -9.4076163     -12.44571      -16.976331     -20.619217    
     67600   9.3125213e-07 -9.4113518     -12.443241     -16.984501     -20.657864    
     67700   9.2467231e-07 -9.4149495     -12.440987     -16.992519     -20.696471    
     67800   9.17895e-07   -9.4184062     -12.438946     -17.000385     -20.735059    
     67900   9.1092621e-07 -9.4217181     -12.437119     -17.008104     -20.773606    
     68000   9.037436e-07  -9.4248808     -12.435503     -17.015678     -20.812066    
     68100   8.9632454e-07 -9.4278893     -12.434097     -17.023109     -20.850368    
     68200   8.8868003e-07 -9.4307387     -12.4329       -17.030401     -20.888421    
     68300   8.8082464e-07 -9.4334238     -12.431911     -17.037556     -20.926152    
     68400   8.7264845e-07 -9.4359399     -12.43113      -17.044575     -20.963515    
     68500   8.6414307e-07 -9.4382824     -12.430554     -17.051461     -21.000495    
     68600   8.5530062e-07 -9.4404476     -12.430183     -17.058216     -21.037119    
     68700   8.4608456e-07 -9.4424321     -12.430015     -17.06484      -21.073453    
     68800   8.3649395e-07 -9.4442336     -12.43005      -17.071335     -21.109547    
     68900   8.26558e-07   -9.4458505     -12.430284     -17.077704     -21.145443    
     69000   8.1633394e-07 -9.4472821     -12.430715     -17.083949     -21.18119     
     69100   8.0586323e-07 -9.4485286     -12.43134      -17.090072     -21.216828    
     69200   7.9515603e-07 -9.4495911     -12.432155     -17.096076     -21.252376    
     69300   7.8411468e-07 -9.4504716     -12.433156     -17.101965     -21.28781     
     69400   7.7269813e-07 -9.451173      -12.434339     -17.10774      -21.323067    
     69500   7.6097e-07    -9.4516988     -12.435697     -17.113404     -21.358081    
     69600   7.4897838e-07 -9.452053      -12.437226     -17.118958     -21.392816    
     69700   7.3673467e-07 -9.4522403     -12.43892      -17.124405     -21.427257    
     69800   7.2422692e-07 -9.4522654     -12.440771     -17.129747     -21.461389    
     69900   7.1145876e-07 -9.4521333     -12.442772     -17.134983     -21.495214    
     70000   6.9848658e-07 -9.4518489     -12.444918     -17.140117     -21.52874     
     70100   6.8538497e-07 -9.4514172     -12.4472       -17.14515      -21.56198     
     70200   6.7218615e-07 -9.4508426     -12.449612     -17.150082     -21.594934    
     70300   6.5891116e-07 -9.4501296     -12.452147     -17.154915     -21.627574    
     70400   6.4558523e-07 -9.449282      -12.4548       -17.15965      -21.659856    
     70500   6.321348e-07  -9.4483035     -12.457562     -17.164289     -21.691733    
     70600   6.1842797e-07 -9.4471971     -12.460429     -17.168832     -21.723164    
     70700   6.0457328e-07 -9.4459655     -12.463394     -17.17328      -21.754134    
     70800   5.9068715e-07 -9.4446113     -12.466451     -17.177635     -21.784664    
     70900   5.7677945e-07 -9.4431365     -12.469592     -17.181897     -21.814795    
     71000   5.6284242e-07 -9.4415434     -12.472812     -17.186067     -21.844543    
     71100   5.4889964e-07 -9.4398341     -12.476105     -17.190147     -21.87395     
     71200   5.3499627e-07 -9.4380111     -12.479464     -17.194138     -21.903053    
     71300   5.211734e-07  -9.4360772     -12.482883     -17.198042     -21.931868    
     71400   5.074343e-07  -9.4340358     -12.486356     -17.20186      -21.960377    
     71500   4.9377075e-07 -9.4318907     -12.489877     -17.205593     -21.988521    
     71600   4.8019586e-07 -9.4296466     -12.49344      -17.209244     -22.016228    
     71700   4.6675091e-07 -9.4273083     -12.49704      -17.212814     -22.043447    
     71800   4.5346957e-07 -9.4248817     -12.50067      -17.216304     -22.070153    
     71900   4.4036826e-07 -9.4223728     -12.504322     -17.219718     -22.096336    
     72000   4.2744648e-07 -9.419788      -12.507992     -17.223055     -22.121996    
     72100   4.147014e-07  -9.4171345     -12.51167      -17.226319     -22.147148    
     72200   4.0213736e-07 -9.4144191     -12.515351     -17.229509     -22.171827    
     72300   3.8968552e-07 -9.4116493     -12.519027     -17.232628     -22.196072    
     72400   3.7731834e-07 -9.4088323     -12.522691     -17.235676     -22.21991     
     72500   3.6504308e-07 -9.4059756     -12.526336     -17.238655     -22.243351    
     72600   3.528774e-07  -9.4030861     -12.529956     -17.241566     -22.266407    
     72700   3.4084323e-07 -9.4001707     -12.533544     -17.244411     -22.289072    
     72800   3.2896553e-07 -9.397236      -12.537094     -17.24719      -22.31133     
     72900   3.1726887e-07 -9.3942879     -12.5406       -17.249904     -22.333185    
     73000   3.057647e-07  -9.3913321     -12.544056     -17.252556     -22.35466     
     73100   2.9445657e-07 -9.3883737     -12.547457     -17.255145     -22.375774    
     73200   2.8334766e-07 -9.3854172     -12.550799     -17.257674     -22.39654     
     73300   2.7244019e-07 -9.3824667     -12.554077     -17.260143     -22.416954    
     73400   2.6173654e-07 -9.3795259     -12.557287     -17.262553     -22.437012    
     73500   2.5123949e-07 -9.3765982     -12.560425     -17.264905     -22.456701    
     73600   2.4095345e-07 -9.3736867     -12.563489     -17.267198     -22.476005    
     73700   2.3088425e-07 -9.3707943     -12.566475     -17.269435     -22.494898    
     73800   2.2103772e-07 -9.3679238     -12.569379     -17.271616     -22.513361    
     73900   2.1141867e-07 -9.3650781     -12.572199     -17.273741     -22.531381    
     74000   2.0203343e-07 -9.3622601     -12.574931     -17.275812     -22.548956    
     74100   1.9289161e-07 -9.3594732     -12.577573     -17.277828     -22.566091    
     74200   1.8399577e-07 -9.3567207     -12.580122     -17.279791     -22.582801    
     74300   1.7534721e-07 -9.3540064     -12.582575     -17.281701     -22.599099    
     74400   1.6694731e-07 -9.3513342     -12.584931     -17.28356      -22.614992    
     74500   1.5879542e-07 -9.3487085     -12.587186     -17.285368     -22.630485    
     74600   1.5088951e-07 -9.3461336     -12.589339     -17.287126     -22.645577    
     74700   1.4323414e-07 -9.3436142     -12.591387     -17.288835     -22.660261    
     74800   1.3582974e-07 -9.3411548     -12.593327     -17.290496     -22.674528    
     74900   1.286769e-07  -9.33876       -12.595158     -17.292111     -22.68837     
     75000   1.2177641e-07 -9.3364341     -12.596878     -17.29368      -22.701789    
     75100   1.1512768e-07 -9.3341814     -12.598483     -17.295205     -22.714793    
     75200   1.0872721e-07 -9.3320056     -12.599973     -17.296687     -22.727401    
     75300   1.0257069e-07 -9.3299104     -12.601347     -17.298127     -22.739632    
     75400   9.665416e-08  -9.3278989     -12.602602     -17.299526     -22.751495    
     75500   9.0973866e-08 -9.3259737     -12.603739     -17.300885     -22.762997    
     75600   8.5524905e-08 -9.324137      -12.604758     -17.302204     -22.774142    
     75700   8.0303176e-08 -9.3223906     -12.605658     -17.303486     -22.78493     
     75800   7.5300214e-08 -9.3207356     -12.60644      -17.304729     -22.795363    
     75900   7.0512608e-08 -9.3191729     -12.607105     -17.305936     -22.80544     
     76000   6.5937317e-08 -9.3177028     -12.607654     -17.307107     -22.815168    
     76100   6.1570362e-08 -9.3163251     -12.608089     -17.308242     -22.82456     
     76200   5.7406859e-08 -9.3150395     -12.608412     -17.309341     -22.833635    
     76300   5.3442002e-08 -9.3138454     -12.608624     -17.310405     -22.842413    
     76400   4.9671366e-08 -9.3127422     -12.608727     -17.311435     -22.85091     
     76500   4.6090508e-08 -9.3117289     -12.608725     -17.31243      -22.859136    
     76600   4.2694669e-08 -9.3108047     -12.608619     -17.313392     -22.867095    
     76700   3.9478997e-08 -9.309969      -12.608411     -17.31432      -22.874788    
[...]
    138600   5.4202125e-08 -2.5004006     -5.2985762     -10.65278      -17.269358    
    138700   4.9098811e-08 -2.5004006     -5.2933901     -10.647588     -17.262735    
    138800   4.4232137e-08 -2.5004006     -5.2885454     -10.642698     -17.256301    
    138900   3.9624566e-08 -2.5004006     -5.2840247     -10.638097     -17.250064    
    139000   3.529608e-08  -2.5004006     -5.2798126     -10.633769     -17.244027    
    139100   3.1262933e-08 -2.5004006     -5.2758974     -10.629699     -17.238191    
    139200   2.7536817e-08 -2.5004006     -5.2722714     -10.625874     -17.232555    
    139300   2.4124621e-08 -2.5004006     -5.2689313     -10.622282     -17.227114    
    139400   2.1028826e-08 -2.5004006     -5.2658785     -10.618916     -17.221864    
    139500   1.8248416e-08 -2.5004006     -5.2631188     -10.61577      -17.216796    
    139600   1.5780096e-08 -2.5004006     -5.2606619     -10.612844     -17.211905    
    139700   1.3619539e-08 -2.5004006     -5.2585204     -10.610141     -17.207183    
    139800   1.1762389e-08 -2.5004006     -5.2567095     -10.607668     -17.202624    
    139900   1.0204813e-08 -2.5004006     -5.2552451     -10.605434     -17.198226    
    140000   8.9435033e-09 -2.5004006     -5.2541432     -10.60345      -17.193984    
    140100   7.975189e-09  -2.5004006     -5.2534187     -10.601732     -17.189901    
    140200   7.2957819e-09 -2.5004006     -5.2530837     -10.600291     -17.185978    
    140300   6.8994055e-09 -2.5004006     -5.2531476     -10.599144     -17.182222    
    140400   6.7775428e-09 -2.5004006     -5.2536154     -10.5983       -17.17864     
    140500   6.9185184e-09 -2.5004006     -5.2544877     -10.597772     -17.17524     
    140600   7.30744e-09   -2.5004006     -5.2557605     -10.597565     -17.172034    
    140700   7.9266229e-09 -2.5004006     -5.2574248     -10.597684     -17.169033    
    140800   8.7564097e-09 -2.5004006     -5.2594671     -10.598129     -17.166249    
    140900   9.7762172e-09 -2.5004006     -5.2618695     -10.598895     -17.163692    
    141000   1.0965593e-08 -2.5004006     -5.264611      -10.599976     -17.161371    
    141100   1.2305073e-08 -2.5004006     -5.2676674     -10.601358     -17.159296    
    141200   1.3776682e-08 -2.5004006     -5.2710132     -10.603028     -17.157471    
    141300   1.5363996e-08 -2.5004006     -5.2746218     -10.604967     -17.155901    
    141400   1.7051815e-08 -2.5004006     -5.2784669     -10.607157     -17.154587    
    141500   1.8825531e-08 -2.5004006     -5.2825234     -10.609576     -17.153527    
    141600   2.0670404e-08 -2.5004006     -5.2867683     -10.612203     -17.152717    
    141700   2.2570913e-08 -2.5004006     -5.2911814     -10.615017     -17.152153    
    141800   2.4510364e-08 -2.5004006     -5.2957458     -10.617999     -17.151825    
    141900   2.6470853e-08 -2.5004006     -5.3004482     -10.62113      -17.151724    
    142000   2.8433591e-08 -2.5004006     -5.3052792     -10.624396     -17.151839    
    142100   3.0379539e-08 -2.5004006     -5.3102327     -10.627783     -17.152158    
    142200   3.2290204e-08 -2.5004006     -5.3153061     -10.631283     -17.152669    
    142300   3.4148438e-08 -2.5004006     -5.3204995     -10.634889     -17.153359    
    142400   3.5939073e-08 -2.5004006     -5.3258148     -10.638597     -17.154217    
    142500   3.7649273e-08 -2.5004006     -5.3312555     -10.642407     -17.155231    
    142600   3.9268541e-08 -2.5004006     -5.336825      -10.64632      -17.156394    
    142700   4.0788411e-08 -2.5004006     -5.3425266     -10.65034      -17.157697    
    142800   4.2201909e-08 -2.5004006     -5.3483623     -10.65447      -17.159134    
    142900   4.3502919e-08 -2.5004006     -5.3543317     -10.658714     -17.160702    
    143000   4.4685615e-08 -2.5004006     -5.3604321     -10.663075     -17.162398    
    143100   4.5744081e-08 -2.5004006     -5.3666578     -10.667555     -17.164222    
    143200   4.6672204e-08 -2.5004006     -5.3729997     -10.672154     -17.166176    
    143300   4.7463853e-08 -2.5004006     -5.3794455     -10.67687      -17.16826     
    143400   4.8113292e-08 -2.5004006     -5.3859798     -10.681697     -17.170479    
    143500   4.8615729e-08 -2.5004006     -5.3925844     -10.686629     -17.172833    
    143600   4.8967858e-08 -2.5004006     -5.3992391     -10.691654     -17.175326    
    143700   4.9168274e-08 -2.5004006     -5.4059217     -10.69676      -17.177957    
    143800   4.9217677e-08 -2.5004006     -5.4126094     -10.701931     -17.180727    
    143900   4.91188e-08   -2.5004006     -5.419279      -10.707149     -17.183635    
    144000   4.8876098e-08 -2.5004006     -5.4259081     -10.712397     -17.186675    
    144100   4.8495254e-08 -2.5004006     -5.4324753     -10.717656     -17.189843    
    144200   4.798262e-08  -2.5004006     -5.4389613     -10.722907     -17.193131    
    144300   4.7344699e-08 -2.5004006     -5.4453492     -10.72813      -17.196532    
    144400   4.6587783e-08 -2.5013784     -5.4516248     -10.73331      -17.200033    
    144500   4.5717794e-08 -2.5080656     -5.4577771     -10.73843      -17.203624    
    144600   4.4740363e-08 -2.5151272     -5.4637982     -10.743476     -17.207292    
    144700   4.3661091e-08 -2.5220124     -5.4696833     -10.748439     -17.211024    
    144800   4.2485915e-08 -2.5287237     -5.4754305     -10.753309     -17.214808    
    144900   4.122149e-08  -2.5352651     -5.48104       -10.758081     -17.21863     
    145000   3.9875468e-08 -2.5416416     -5.4865143     -10.762752     -17.222478    
    145100   3.8456615e-08 -2.5478579     -5.491857      -10.767321     -17.226342    
    145200   3.697473e-08  -2.5539182     -5.4970723     -10.771788     -17.23021     
    145300   3.5440375e-08 -2.5598255     -5.5021645     -10.776156     -17.234074    
    145400   3.3864464e-08 -2.5655807     -5.5071373     -10.78043      -17.237926    
    145500   3.2257812e-08 -2.5711825     -5.5119933     -10.784613     -17.241761    
    145600   3.0630716e-08 -2.5766274     -5.5167333     -10.788708     -17.245574    
    145700   2.8992651e-08 -2.5819091     -5.5213563     -10.79272      -17.249363    
    145800   2.7352145e-08 -2.587019      -5.5258592     -10.796649     -17.253126    
    145900   2.5716828e-08 -2.5919465     -5.5302367     -10.800498     -17.256863    
    146000   2.4093626e-08 -2.596679      -5.5344814     -10.804264     -17.260574    
    146100   2.2489059e-08 -2.6012031     -5.538584      -10.807945     -17.264259    
    146200   2.090954e-08  -2.6055044     -5.5425339     -10.811536     -17.26792     
    146300   1.936161e-08  -2.609569      -5.5463193     -10.81503      -17.271558    
    146400   1.7852051e-08 -2.6133834     -5.549928      -10.818418     -17.275171    
    146500   1.6387846e-08 -2.6169355     -5.553348      -10.821692     -17.278759    
    146600   1.4975998e-08 -2.6202152     -5.5565676     -10.824841     -17.282321    
    146700   1.3623242e-08 -2.6232149     -5.5595765     -10.827854     -17.285852    
    146800   1.233572e-08  -2.6259293     -5.5623659     -10.83072      -17.289348    
    146900   1.1118692e-08 -2.6283564     -5.564929      -10.83343      -17.292804    
    147000   9.9763296e-09 -2.6304967     -5.5672612     -10.835975     -17.296213    
    147100   8.9116479e-09 -2.6323538     -5.5693603     -10.838347     -17.299567    
    147200   7.9265771e-09 -2.6339338     -5.5712268     -10.84054      -17.302859    
    147300   7.0221506e-09 -2.6352451     -5.5728632     -10.842551     -17.306079    
    147400   6.1987672e-09 -2.6362976     -5.5742744     -10.844377     -17.309219    
    147500   5.4564643e-09 -2.6371027     -5.5754673     -10.846018     -17.312271    
    147600   4.7951432e-09 -2.6376723     -5.5764501     -10.847478     -17.315227    
    147700   4.2146999e-09 -2.6380185     -5.5772321     -10.848759     -17.31808     
    147800   3.7150388e-09 -2.6381529     -5.5778233     -10.849868     -17.320824    
    147900   3.2959748e-09 -2.638086      -5.5782336     -10.850812     -17.323454    
    148000   2.9570538e-09 -2.6378271     -5.5784727     -10.851598     -17.325965    
    148100   2.6973404e-09 -2.6373839     -5.5785494     -10.852234     -17.328357    
    148200   2.5152272e-09 -2.636762      -5.5784712     -10.852729     -17.330626    
    148300   2.4083119e-09 -2.6359654     -5.5782444     -10.853091     -17.332775    
    148400   2.3733744e-09 -2.634996      -5.5778736     -10.853327     -17.334803    
    148500   2.4064606e-09 -2.6338542     -5.5773617     -10.853443     -17.336713    
    148600   2.5030569e-09 -2.6325391     -5.5767102     -10.853443     -17.338508    
    148700   2.65832e-09   -2.6310489     -5.575919      -10.853331     -17.340192    
    148800   2.8673153e-09 -2.629381      -5.5749868     -10.85311      -17.341767    
    148900   3.1252177e-09 -2.6275331     -5.5739117     -10.852779     -17.343239    
    149000   3.4274384e-09 -2.6255031     -5.5726911     -10.852338     -17.34461     
    149100   3.7696599e-09 -2.6232898     -5.5713225     -10.851784     -17.345883    
    149200   4.1477819e-09 -2.6208934     -5.5698037     -10.851117     -17.347061    
    149300   4.5578011e-09 -2.6183155     -5.5681331     -10.850332     -17.348145    
    149400   4.9956612e-09 -2.6155597     -5.5663104     -10.849427     -17.349137    
    149500   5.4571156e-09 -2.6126316     -5.5643365     -10.848399     -17.350035    
    149600   5.937639e-09  -2.6095385     -5.562214      -10.847246     -17.350839    
    149700   6.4324122e-09 -2.6062898     -5.559947      -10.845968     -17.351546    
    149800   6.9363879e-09 -2.6028968     -5.5575414     -10.844564     -17.352156    
    149900   7.4444241e-09 -2.5993718     -5.5550047     -10.843037     -17.352664    
    150000   7.9514595e-09 -2.5957285     -5.5523459     -10.841388     -17.353067    
    150100   8.4526943e-09 -2.5919813     -5.5495753     -10.839624     -17.353364    
    150200   8.943742e-09  -2.5881446     -5.5467039     -10.837748     -17.353552    
    150300   9.4207224e-09 -2.5842328     -5.5437436     -10.83577      -17.353628    
    150400   9.8802834e-09 -2.5802597     -5.5407065     -10.833697     -17.353591    
    150500   1.0319552e-08 -2.5762382     -5.5376044     -10.831538     -17.35344     
    150600   1.073603e-08  -2.5721797     -5.5344489     -10.829302     -17.353177    
    150700   1.112747e-08  -2.5680944     -5.5312507     -10.827001     -17.352803    
    150800   1.1491747e-08 -2.5639907     -5.5280193     -10.824644     -17.352319    
    150900   1.182678e-08  -2.5598754     -5.5247633     -10.822239     -17.351729    
    151000   1.2130495e-08 -2.5557538     -5.5214897     -10.819797     -17.351038    
    151100   1.2400856e-08 -2.5516296     -5.518204      -10.817324     -17.35025     
    151200   1.2635948e-08 -2.5475052     -5.5149106     -10.814829     -17.34937     
    151300   1.2834091e-08 -2.5433822     -5.5116123     -10.812316     -17.348405    
    151400   1.2993958e-08 -2.5392615     -5.5083111     -10.80979      -17.347361    
    151500   1.3114674e-08 -2.5351438     -5.5050079     -10.807254     -17.346243    
    151600   1.3195868e-08 -2.5310296     -5.5017033     -10.80471      -17.345058    
    151700   1.3237675e-08 -2.5269202     -5.4983976     -10.80216      -17.343811    
    151800   1.3240676e-08 -2.5228173     -5.4950908     -10.799604     -17.342508    
    151900   1.32058e-08   -2.5187237     -5.4917837     -10.797041     -17.341154    
    152000   1.3134211e-08 -2.5146433     -5.4884775     -10.794473     -17.339751    
    152100   1.3027189e-08 -2.5105812     -5.485174      -10.791897     -17.338303    
    152200   1.2886046e-08 -2.5066951     -5.4818764     -10.789315     -17.336813    
    152300   1.2712083e-08 -2.5030851     -5.4785886     -10.786726     -17.335282    
    152400   1.2506586e-08 -2.5006113     -5.4753157     -10.784132     -17.333711    
    152500   1.2270879e-08 -2.5004006     -5.4720638     -10.781536     -17.3321      
    152600   1.2006388e-08 -2.5004006     -5.4688398     -10.778939     -17.330451    
    152700   1.171472e-08  -2.5004006     -5.4656515     -10.776347     -17.328763    
    152800   1.1397726e-08 -2.5004006     -5.4625071     -10.773763     -17.327036    
    152900   1.1057531e-08 -2.5004006     -5.4594152     -10.771194     -17.325271    
    153000   1.0696521e-08 -2.5004006     -5.4563842     -10.768646     -17.323468    
    153100   1.0317294e-08 -2.5004006     -5.4534223     -10.766126     -17.321628    
    153200   9.9225764e-09 -2.5004006     -5.4505372     -10.763641     -17.319753    
    153300   9.5151232e-09 -2.5004006     -5.447736      -10.761198     -17.317845    
    153400   9.0976257e-09 -2.5004006     -5.4450245     -10.758805     -17.315908    
    153500   8.6726371e-09 -2.5004006     -5.4424076     -10.756467     -17.313945    
    153600   8.242532e-09  -2.5004006     -5.4398892     -10.754192     -17.31196     
    153700   7.8095034e-09 -2.5004006     -5.4374717     -10.751983     -17.309958    
    153800   7.375593e-09  -2.5004006     -5.4351563     -10.749846     -17.307945    
    153900   6.9427439e-09 -2.5004006     -5.4329435     -10.747784     -17.305925    
    154000   6.5128599e-09 -2.5004006     -5.4308325     -10.7458       -17.303905    
    154100   6.0878549e-09 -2.5004006     -5.4288219     -10.743894     -17.30189     
    154200   5.6696804e-09 -2.5004006     -5.4269097     -10.742066     -17.299886    
    154300   5.2603221e-09 -2.5004006     -5.4250935     -10.740317     -17.297897    
    154400   4.8617668e-09 -2.5004006     -5.423371      -10.738646     -17.295928    
    154500   4.4759446e-09 -2.5004006     -5.4217399     -10.73705      -17.293984    
    154600   4.1046613e-09 -2.5004006     -5.4201984     -10.735528     -17.292068    
    154700   3.7495317e-09 -2.5004006     -5.418745      -10.734077     -17.290183    
    154800   3.4119309e-09 -2.5004006     -5.4173789     -10.732696     -17.288331    
    154900   3.092969e-09  -2.5004006     -5.4161002     -10.731383     -17.286513    
    155000   2.793497e-09  -2.5004006     -5.4149093     -10.730136     -17.284731    
    155100   2.5141371e-09 -2.5004006     -5.4138077     -10.728955     -17.282986    
    155200   2.2553324e-09 -2.5004006     -5.4127972     -10.72784      -17.281277    
    155300   2.0174016e-09 -2.5004006     -5.4118804     -10.726791     -17.279603    
    155400   1.8005885e-09 -2.5004006     -5.4110599     -10.725809     -17.277966    
    155500   1.6050935e-09 -2.5004006     -5.4103387     -10.724897     -17.276363    
    155600   1.4310838e-09 -2.5004006     -5.4097195     -10.724056     -17.274795    
    155700   1.2786791e-09 -2.5004006     -5.4092049     -10.723288     -17.273262    
    155800   1.1479199e-09 -2.5004006     -5.4087972     -10.722597     -17.271765    
    155900   1.0387255e-09 -2.5004006     -5.4084979     -10.721985     -17.270302    
    156000   9.5085432e-10 -2.5004006     -5.4083077     -10.721454     -17.268877    
    156100   8.838743e-10  -2.5004006     -5.4082268     -10.721007     -17.267489    
    156200   8.3715364e-10 -2.5004006     -5.4082542     -10.720646     -17.266142    
    156300   8.0987244e-10 -2.5004006     -5.4083882     -10.720372     -17.264837    
    156400   8.0105445e-10 -2.5004006     -5.408626      -10.720185     -17.263577    
    156500   8.0961255e-10 -2.5004006     -5.4089644     -10.720085     -17.262365    
    156600   8.3439893e-10 -2.5004006     -5.4093991     -10.72007      -17.261204    
    156700   8.7425049e-10 -2.5004006     -5.4099256     -10.720141     -17.260096    
    156800   9.2802148e-10 -2.5004006     -5.4105388     -10.720292     -17.259045    
    156900   9.9459842e-10 -2.5004006     -5.4112335     -10.720523     -17.258053    
    157000   1.0728967e-09 -2.5004006     -5.4120045     -10.720828     -17.257121    
    157100   1.1618421e-09 -2.5004006     -5.4128467     -10.721205     -17.256253    
    157200   1.2603445e-09 -2.5004006     -5.4137554     -10.721649     -17.255449    
    157300   1.3672709e-09 -2.5004006     -5.4147261     -10.722156     -17.25471     
    157400   1.4814262e-09 -2.5004006     -5.4157553     -10.722721     -17.254036    
    157500   1.6015478e-09 -2.5004006     -5.4168395     -10.723342     -17.253428    
    157600   1.7263161e-09 -2.5004006     -5.4179763     -10.724013     -17.252883    
    157700   1.8543789e-09 -2.5004006     -5.4191635     -10.724733     -17.252402    
    157800   1.9843869e-09 -2.5004006     -5.4203997     -10.725498     -17.251981    
    157900   2.1150318e-09 -2.5004006     -5.4216839     -10.726306     -17.25162     
    158000   2.2450816e-09 -2.5004006     -5.4230153     -10.727156     -17.251317    
    158100   2.3734049e-09 -2.5004006     -5.4243934     -10.728046     -17.251068    
    158200   2.4989819e-09 -2.5004006     -5.4258176     -10.728976     -17.250872    
    158300   2.6209012e-09 -2.5004006     -5.4272873     -10.729945     -17.250727    
    158400   2.7383439e-09 -2.5004006     -5.4288018     -10.730953     -17.25063     
    158500   2.8505612e-09 -2.5004006     -5.4303597     -10.732        -17.250581    
    158600   2.9568506e-09 -2.5004006     -5.4319595     -10.733086     -17.250577    
    158700   3.0565375e-09 -2.5004006     -5.433599      -10.734209     -17.250618    
    158800   3.1489662e-09 -2.5004006     -5.4352753     -10.73537      -17.250703    
    158900   3.233503e-09  -2.5004006     -5.4369853     -10.736568     -17.250832    
    159000   3.3095496e-09 -2.5004006     -5.438725      -10.737801     -17.251004    
    159100   3.3765645e-09 -2.5004006     -5.4404902     -10.739067     -17.251221    
    159200   3.4340876e-09 -2.5004006     -5.442276      -10.740364     -17.251481    
    159300   3.4817613e-09 -2.5004006     -5.4440776     -10.741689     -17.251787    
    159400   3.519345e-09  -2.5004006     -5.4458896     -10.743039     -17.252137    
    159500   3.5467184e-09 -2.5004006     -5.4477069     -10.74441      -17.252532    
    159600   3.5638745e-09 -2.5004006     -5.4495245     -10.745798     -17.252973    
    159700   3.5709026e-09 -2.5004006     -5.4513374     -10.7472       -17.253459    
    159800   3.5679663e-09 -2.5004006     -5.4531412     -10.74861      -17.25399     
    159900   3.5552803e-09 -2.5004006     -5.4549318     -10.750025     -17.254564    
    160000   3.5330905e-09 -2.5004006     -5.4567055     -10.75144      -17.255181    
Loop time of 49.2753 on 1 procs for 60000 steps with 9576 atoms

Performance: 10520476.677 tau/day, 1217.648 timesteps/s, 11.660 Matom-step/s
99.7% CPU use with 1 MPI tasks x no OpenMP threads

MPI task timing breakdown:
Section |  min time  |  avg time  |  max time  |%varavg| %total
---------------------------------------------------------------
Pair    | 6.0276     | 6.0276     | 6.0276     |   0.0 | 12.23
Bond    | 36.671     | 36.671     | 36.671     |   0.0 | 74.42
Neigh   | 0.63507    | 0.63507    | 0.63507    |   0.0 |  1.29
Comm    | 0.063752   | 0.063752   | 0.063752   |   0.0 |  0.13
Output  | 0.3562     | 0.3562     | 0.3562     |   0.0 |  0.72
Modify  | 4.5593     | 4.5593     | 4.5593     |   0.0 |  9.25
Other   |            | 0.9622     |            |       |  1.95

Nlocal:           9576 ave        9576 max        9576 min
Histogram: 1 0 0 0 0 0 0 0 0 0
Nghost:              0 ave           0 max           0 min
Histogram: 1 0 0 0 0 0 0 0 0 0
Neighs:          44691 ave       44691 max       44691 min
Histogram: 1 0 0 0 0 0 0 0 0 0

Total # of neighbors = 44691
Ave neighs/atom = 4.6669799
Ave special neighs/atom = 11.495405
Neighbor list builds = 147
Dangerous builds = 0
Total wall time: 0:01:55
