LAMMPS data file via write_data, version 4 Feb 2025, timestep = 0, units = metal

1024 atoms
1 atom types

0 15 xlo xhi
0 28.32 ylo yhi
0 13.68 zlo zhi

Masses

1 58.9332

Atoms # spin

1 1 14.18 24.7800007 12.3900004 0.9998339679681115 -0.007313875807234344 0.016689629049740074 -1 0 0 0
2 1 14.18 26.5499993 10.6199999 0.9998339681544698 0.014460146860375576 -0.011087843670569074 -1 0 0 0
3 1 14.18 26.5499993 12.3900004 0.9998227177983287 -0.011849424693938043 0.014632980174458072 -1 0 0 0
4 1 14.18 24.7800007 10.6199999 0.9998227176239245 0.010563513305688877 -0.015586709394573756 -1 0 0 0
5 1 14.18 21.2399998 12.3900004 0.9998339678493338 -0.007407317553778871 0.01664837473493681 -1 0 0 0
6 1 14.18 23.0100002 10.6199999 0.9998339679668387 0.013672196771444128 -0.012046058904459136 -1 0 0 0
7 1 14.18 23.0100002 12.3900004 0.9998227177370962 -0.005158595813866779 -0.018108616347908925 -1 0 0 0
8 1 14.18 21.2399998 10.6199999 0.999822717607606 0.0008154072291390264 0.018811391941912958 -1 0 0 0
9 1 14.18 17.7000008 12.3900004 0.9998339678462264 -0.002322705276765592 0.018073233829847612 -1 0 0 0
10 1 14.18 19.4699993 10.6199999 0.9998339679190544 0.01599871041847641 0.008722262331803829 -1 0 0 0
11 1 14.18 19.4699993 12.3900004 0.9998227177527408 -0.01487131833422065 -0.011548894168937356 -1 0 0 0
12 1 14.18 17.7000008 10.6199999 0.9998227178398266 0.01170604145127684 -0.01474793154728461 -1 0 0 0
13 1 14.18 14.1599999 12.3900004 0.9998339679906828 0.013362570763136617 0.01238863005365831 -1 0 0 0
14 1 14.18 15.9300004 10.6199999 0.9998339677558558 -0.00819065750612436 0.0162772863585956 -1 0 0 0
15 1 14.18 15.9300004 12.3900004 0.999822717767326 -0.01882805565735156 -0.00019327835226981834 -1 0 0 0
16 1 14.18 14.1599999 10.6199999 0.9998227177368134 0.01825860858885446 -0.0045995988706889375 -1 0 0 0
17 1 14.18 10.6199999 12.3900004 0.9998339680156345 -0.01789967052474672 0.0034114802090286 -1 0 0 0
18 1 14.18 12.3900004 10.6199999 0.9998339679240799 -0.006803481238806762 -0.016904118676322816 -1 0 0 0
19 1 14.18 12.3900004 12.3900004 0.9998227176760858 0.006574860737842759 -0.01764382115879964 -1 0 0 0
20 1 14.18 10.6199999 10.6199999 0.999822717725828 0.018815760284571638 0.0007073077496330891 -1 0 0 0
21 1 14.18 7.0799999 12.3900004 0.9998339678922132 -0.011605545205468044 -0.01404805927509972 -1 0 0 0
22 1 14.18 8.8500004 10.6199999 0.9998339681051013 0.0018205488164265773 0.018130687389454905 -1 0 0 0
23 1 14.18 8.8500004 12.3900004 0.9998227177586031 0.0022849809702137286 -0.018689888061892306 -1 0 0 0
24 1 14.18 7.0799999 10.6199999 0.999822717551265 0.0007744841640137833 -0.01881312421378348 -1 0 0 0
25 1 14.18 3.54 12.3900004 0.999833967997138 -0.018221669182525227 8.491937900449136e-05 -1 0 0 0
26 1 14.18 5.31 10.6199999 0.9998339679358172 -0.017897228792788433 -0.0034242901831005074 -1 0 0 0
27 1 14.18 5.31 12.3900004 0.9998227176654746 0.015200450189768048 0.01111213544073337 -1 0 0 0
28 1 14.18 3.54 10.6199999 0.9998227175814908 -0.013386270874738959 0.013241644914085806 -1 0 0 0
29 1 14.18 0 12.3900004 0.9998339679998062 0.010877526849663624 0.014619023339382902 -1 0 0 0
30 1 14.18 1.77 10.6199999 0.99983396809324 -0.012412008713657737 0.01334085029591446 -1 0 0 0
31 1 14.18 1.77 12.3900004 0.9998227174949006 0.017819985781009604 0.006081257096735381 -1 0 0 0
32 1 14.18 0 10.6199999 0.9998227177568443 0.011559626729535043 -0.014862977063538216 -1 0 0 0
33 1 14.18 24.7800007 8.8500004 0.9998339679014574 -0.015827279068797197 -0.009029610606553584 -1 0 0 0
34 1 14.18 26.5499993 7.0799999 0.9998339679661162 -0.017818273432256393 0.0038138737557338767 -1 0 0 0
35 1 14.18 26.5499993 8.8500004 0.9998227176959784 0.010162077883786664 -0.01585135174398669 -1 0 0 0
36 1 14.18 24.7800007 7.0799999 0.9998227175509468 0.008546432109701558 -0.016777722349415113 -1 0 0 0
37 1 14.18 21.2399998 8.8500004 0.9998339679257452 -0.00918996305944468 0.015734711971502977 -1 0 0 0
38 1 14.18 23.0100002 7.0799999 0.9998339679085572 -0.008778877680626183 0.015967715018082307 -1 0 0 0
39 1 14.18 23.0100002 8.8500004 0.9998227176687109 0.015238974433473305 -0.011059244629220045 -1 0 0 0
40 1 14.18 21.2399998 7.0799999 0.9998227177436069 0.00380367594613216 0.01844085499874142 -1 0 0 0
41 1 14.18 17.7000008 8.8500004 0.9998339681040895 0.01802006241894294 -0.0027043623366611 -1 0 0 0
42 1 14.18 19.4699993 7.0799999 0.999833968066447 -0.013350034117847635 -0.012402132459988726 -1 0 0 0
43 1 14.18 19.4699993 8.8500004 0.9998227178518538 -0.017911156064896946 -0.005807181394722589 -1 0 0 0
44 1 14.18 17.7000008 7.0799999 0.999822717603918 -0.014485831117774753 0.01202888440143949 -1 0 0 0
45 1 14.18 14.1599999 8.8500004 0.9998339679005134 -0.011379557578520653 -0.014231735720999346 -1 0 0 0
46 1 14.18 15.9300004 7.0799999 0.9998339680680391 0.011212116820448882 0.014364008274987324 -1 0 0 0
47 1 14.18 15.9300004 8.8500004 0.9998227176480983 0.010245509419779223 -0.01579755713710683 -1 0 0 0
48 1 14.18 14.1599999 7.0799999 0.9998227175369465 0.005731130845432005 -0.017935652657979896 -1 0 0 0
49 1 14.18 10.6199999 8.8500004 0.9998339680328711 -0.017880410008863007 0.003511026282841916 -1 0 0 0
50 1 14.18 12.3900004 7.0799999 0.9998339678534417 -0.0012506926429533905 -0.018178902451907158 -1 0 0 0
51 1 14.18 12.3900004 8.8500004 0.999822717540889 0.01046612943962895 0.015652272157889852 -1 0 0 0
52 1 14.18 10.6199999 7.0799999 0.9998227175254596 -0.0055931891987464994 -0.017979147771572827 -1 0 0 0
53 1 14.18 7.0799999 8.8500004 0.9998339678928588 0.0019938005302114334 0.018112465515984975 -1 0 0 0
54 1 14.18 8.8500004 7.0799999 0.9998339680946756 -0.000878773351089805 0.018200659368625347 -1 0 0 0
55 1 14.18 8.8500004 8.8500004 0.9998227175576356 0.010200639784139525 0.015826572707264674 -1 0 0 0
56 1 14.18 7.0799999 7.0799999 0.9998227178433912 -0.0030895276016231366 0.018573844606148943 -1 0 0 0
57 1 14.18 3.54 8.8500004 0.9998339679295146 0.010558607686777131 -0.014851005960511022 -1 0 0 0
58 1 14.18 5.31 7.0799999 0.9998339678245215 0.01544837351070217 -0.009663567671806279 -1 0 0 0
59 1 14.18 5.31 8.8500004 0.9998227177496692 -0.016806003591252297 0.008490660454646328 -1 0 0 0
60 1 14.18 3.54 7.0799999 0.9998227177304847 -0.013670363637397752 -0.012948137628596862 -1 0 0 0
61 1 14.18 0 8.8500004 0.9998339677988299 -0.0015209247915288814 0.01815829351637458 -1 0 0 0
62 1 14.18 1.77 7.0799999 0.9998339678584015 0.00859884560833464 -0.01606538423844752 -1 0 0 0
63 1 14.18 1.77 8.8500004 0.9998227175243516 -0.013470041333407491 0.013156424616768872 -1 0 0 0
64 1 14.18 0 7.0799999 0.9998227176904689 -0.0007811364687569905 0.018812841780598874 -1 0 0 0
65 1 14.18 24.7800007 5.31 0.9998339680383885 0.01599225987853908 -0.008734070104361117 -1 0 0 0
66 1 14.18 26.5499993 3.54 0.9998339679998008 -0.018216239065426063 0.0004528444373133787 -1 0 0 0
67 1 14.18 26.5499993 5.31 0.9998227176631379 -0.008405233037749931 0.016848896173887726 -1 0 0 0
68 1 14.18 24.7800007 3.54 0.9998227177556032 0.013182785294847617 0.013444226704041565 -1 0 0 0
69 1 14.18 21.2399998 5.31 0.9998339679722817 0.01390201099119927 -0.011780092495512687 -1 0 0 0
70 1 14.18 23.0100002 3.54 0.9998339679867873 0.001905880009468235 0.01812192266802082 -1 0 0 0
71 1 14.18 23.0100002 5.31 0.9998227178098129 0.009159863849083323 0.01645083115424432 -1 0 0 0
72 1 14.18 21.2399998 3.54 0.9998227176445919 0.007629664320020877 -0.01721399152277993 -1 0 0 0
73 1 14.18 17.7000008 5.31 0.9998339679329675 -0.014695846740731645 0.010773516417134539 -1 0 0 0
74 1 14.18 19.4699993 3.54 0.9998339678311804 0.014590961657702446 0.010915155008594527 -1 0 0 0
75 1 14.18 19.4699993 5.31 0.9998227176195085 0.016043972961045122 -0.009855164309420576 -1 0 0 0
76 1 14.18 17.7000008 3.54 0.9998227177859884 -0.006852645766290043 -0.017537794759931318 -1 0 0 0
77 1 14.18 14.1599999 5.31 0.999833967878499 -0.014492636449918451 -0.011045368489422261 -1 0 0 0
78 1 14.18 15.9300004 3.54 0.9998339680329463 -0.011571725417079931 0.014075920515731777 -1 0 0 0
79 1 14.18 15.9300004 5.31 0.9998227175984047 0.018426921496403726 0.0038706508892136574 -1 0 0 0
80 1 14.18 14.1599999 3.54 0.9998227176615301 0.01090224798026384 0.015351685148184724 -1 0 0 0
81 1 14.18 10.6199999 5.31 0.9998339680540536 0.015019995581255023 -0.010316785256310499 -1 0 0 0
82 1 14.18 12.3900004 3.54 0.9998339679627201 0.006959223558732891 -0.016840597239472194 -1 0 0 0
83 1 14.18 12.3900004 5.31 0.9998227176309347 0.005650109428353093 0.017961335488769 -1 0 0 0
84 1 14.18 10.6199999 3.54 0.9998227177919036 0.018743306087571347 0.0017948437589946336 -1 0 0 0
85 1 14.18 7.0799999 5.31 0.9998339680074841 -0.012185310432609935 0.01354823339295276 -1 0 0 0
86 1 14.18 8.8500004 3.54 0.9998339680796521 0.008693471779197976 -0.01601436300705372 -1 0 0 0
87 1 14.18 8.8500004 5.31 0.9998227176618781 0.016312456436939068 0.009404095501911444 -1 0 0 0
88 1 14.18 7.0799999 3.54 0.9998227178858001 0.015029840138453314 0.011341812238987859 -1 0 0 0
89 1 14.18 3.54 5.31 0.9998339679343847 -0.002284202466459217 -0.018078135514369487 -1 0 0 0
90 1 14.18 5.31 3.54 0.9998339679563494 0.01822159629430338 -9.974542100055404e-05 -1 0 0 0
91 1 14.18 5.31 5.31 0.9998227176445538 -0.010766509332713234 0.015447186107757293 -1 0 0 0
92 1 14.18 3.54 3.54 0.9998227177772125 -0.018727226075523778 -0.0019555101904093312 -1 0 0 0
93 1 14.18 0 5.31 0.9998339677619119 0.010145645453836227 0.015136141773816584 -1 0 0 0
94 1 14.18 1.77 3.54 0.9998339679182753 0.009318263243382086 -0.01565907299058594 -1 0 0 0
95 1 14.18 1.77 5.31 0.9998227175205553 0.008517134102051772 -0.016792616130296825 -1 0 0 0
96 1 14.18 0 3.54 0.9998227177172287 0.011813743636411994 0.014661807454326986 -1 0 0 0
97 1 14.18 24.7800007 1.77 0.9998339680688517 0.0003529831252420645 0.01821844391290867 -1 0 0 0
98 1 14.18 26.5499993 0 0.999833967889497 0.01147299932581242 -0.014156515843046514 -1 0 0 0
99 1 14.18 26.5499993 1.77 0.9998227176958598 0.014633658018887831 -0.011848596214365414 -1 0 0 0
100 1 14.18 24.7800007 0 0.9998227174408816 0.012866607822797155 0.013747148513982349 -1 0 0 0
101 1 14.18 21.2399998 1.77 0.9998339679768028 0.0024191536329819926 -0.018060569632820152 -1 0 0 0
102 1 14.18 23.0100002 0 0.9998339677654261 0.009508335563951973 0.015544402762680527 -1 0 0 0
103 1 14.18 23.0100002 1.77 0.9998227177010245 0.012719741208096543 -0.013883131942629112 -1 0 0 0
104 1 14.18 21.2399998 0 0.9998227175962198 0.016074287736957703 -0.009805643898238878 -1 0 0 0
105 1 14.18 17.7000008 1.77 0.9998339679164487 -0.012596778469426272 -0.0131665398887551 -1 0 0 0
106 1 14.18 19.4699993 0 0.9998339680325359 0.008951019684050193 0.015871849763971817 -1 0 0 0
107 1 14.18 19.4699993 1.77 0.9998227175315271 -0.014540152936341012 0.011963171003529848 -1 0 0 0
108 1 14.18 17.7000008 0 0.9998227177873771 0.01737484813012231 -0.007255869949091519 -1 0 0 0
109 1 14.18 14.1599999 1.77 0.9998339680819597 -0.004924770037841753 -0.017543742746556085 -1 0 0 0
110 1 14.18 15.9300004 0 0.9998339678078175 0.010653470738731815 -0.014783111272500616 -1 0 0 0
111 1 14.18 15.9300004 1.77 0.9998227176626032 -0.014978003750550464 -0.011410199359113792 -1 0 0 0
112 1 14.18 14.1599999 0 0.9998227176291908 0.005485449354658542 -0.01801230573681823 -1 0 0 0
113 1 14.18 10.6199999 1.77 0.9998339678017344 0.017850653691640808 0.003659370522602847 -1 0 0 0
114 1 14.18 12.3900004 0 0.9998339678431131 -0.017508064321648607 0.005050191165261709 -1 0 0 0
115 1 14.18 12.3900004 1.77 0.9998227177346983 0.006887008788752262 0.01752433198571009 -1 0 0 0
116 1 14.18 10.6199999 0 0.9998227174971366 0.012781707620874298 -0.013826117565521117 -1 0 0 0
117 1 14.18 7.0799999 1.77 0.9998339678912045 -0.004285947731723529 0.017710655068938798 -1 0 0 0
118 1 14.18 8.8500004 0 0.999833967812462 0.016477344266072114 0.007780355668360723 -1 0 0 0
119 1 14.18 8.8500004 1.77 0.9998227177251787 -0.010844103863452196 0.015392807802216545 -1 0 0 0
120 1 14.18 7.0799999 0 0.9998227176655485 0.01867269713422033 -0.00242149160856681 -1 0 0 0
121 1 14.18 3.54 1.77 0.9998339679848202 -0.014413808643471061 0.011148030504052041 -1 0 0 0
122 1 14.18 5.31 0 0.999833968045977 0.016849671731947267 -0.006937211540806622 -1 0 0 0
123 1 14.18 5.31 1.77 0.9998227177389686 -0.018799981537904933 0.0010458428358781412 -1 0 0 0
124 1 14.18 3.54 0 0.99982271750843 -0.01508084803896208 0.011273933496506735 -1 0 0 0
125 1 14.18 0 1.77 0.9998339678983102 0.01749160997434714 0.005106879401932344 -1 0 0 0
126 1 14.18 1.77 0 0.9998339680878567 -0.014346041511822035 -0.011235094598267917 -1 0 0 0
127 1 14.18 1.77 1.77 0.9998227176137668 0.00717319157349903 -0.01740915466275414 -1 0 0 0
128 1 14.18 0 0 0.9998227177818324 0.0072898187326875105 0.017360632194559866 -1 0 0 0
129 1 1.72 0 0 0.9623403205558971 0.027983171066966777 -0.2704034940037018 1 0 0 0
130 1 1.72 1.77 1.77 0.9623403449553097 0.1418405395722054 -0.23191015890892094 1 0 0 0
131 1 1.72 1.77 0 0.9827252327226857 0.14475764762803517 -0.1153097585781038 1 0 0 0
132 1 1.72 0 1.77 0.982725232007237 -0.09759331385958123 0.15724714136106763 1 0 0 0
133 1 1.72 3.54 0 0.9623403329143563 -0.2355662337296442 0.1356821033619258 1 0 0 0
134 1 1.72 5.31 1.77 0.9623403372125863 0.18720373958090095 0.1971188353772723 1 0 0 0
135 1 1.72 5.31 0 0.9827252279418798 -0.18390527442213367 0.020735872450902457 1 0 0 0
136 1 1.72 3.54 1.77 0.982725225570385 0.11767162955219629 -0.14284438605057803 1 0 0 0
137 1 1.72 7.0799999 0 0.9623403257941644 -0.21207479783046518 -0.1700746232556424 1 0 0 0
138 1 1.72 8.8500004 1.77 0.962340303396366 -0.2717116195606406 0.008598619349863862 1 0 0 0
139 1 1.72 8.8500004 0 0.9827252275924441 -0.11157355140464346 -0.1476565937584045 1 0 0 0
140 1 1.72 7.0799999 1.77 0.9827252222893271 0.12372177421428632 -0.13763742246083185 1 0 0 0
141 1 1.72 10.6199999 0 0.9623403404746266 0.2099008361778678 0.17275042132224014 1 0 0 0
142 1 1.72 12.3900004 1.77 0.9623403552879023 -0.1297873640689371 0.23886456562745095 1 0 0 0
143 1 1.72 12.3900004 0 0.982725210522852 0.17544846730270205 -0.05889818268799738 1 0 0 0
144 1 1.72 10.6199999 1.77 0.9827252044915635 -0.15684553362609327 -0.0982377271650802 1 0 0 0
145 1 1.72 14.1599999 0 0.9623403103896863 -0.1663345420048605 0.21502080628421938 1 0 0 0
146 1 1.72 15.9300004 1.77 0.9623403404259744 0.27180514557425645 0.004799169529900031 1 0 0 0
147 1 1.72 15.9300004 0 0.9827252048671864 -0.08134799369577717 -0.16623379812907618 1 0 0 0
148 1 1.72 14.1599999 1.77 0.9827252302471664 0.040911536096649416 -0.18049201658208128 1 0 0 0
149 1 1.72 17.7000008 0 0.9623403219402801 0.09841805539924503 -0.2534067701134071 1 0 0 0
150 1 1.72 19.4699993 1.77 0.9623403217889409 0.26916332583378444 -0.03810786120019648 1 0 0 0
151 1 1.72 19.4699993 0 0.9827252232162419 -0.16688413954448744 -0.08000512248027596 1 0 0 0
152 1 1.72 17.7000008 1.77 0.982725195550532 -0.09977751414831439 0.15587057997117895 1 0 0 0
153 1 1.72 21.2399998 0 0.9623403071740504 0.2192178598037159 -0.1607627541790467 1 0 0 0
154 1 1.72 23.0100002 1.77 0.9623403343125363 -0.17237255211870747 -0.21021128473828266 1 0 0 0
155 1 1.72 23.0100002 0 0.9827252243139444 -0.15295350073192138 -0.10419385831687931 1 0 0 0
156 1 1.72 21.2399998 1.77 0.9827252144682299 0.10070620065026127 -0.1552720644512752 1 0 0 0
157 1 1.72 24.7800007 0 0.9623403180575575 0.04581555456596395 -0.2679590401548198 1 0 0 0
158 1 1.72 26.5499993 1.77 0.9623403144352333 0.1272126904468514 0.24024581287083793 1 0 0 0
159 1 1.72 26.5499993 0 0.9827252060802735 -0.0800589766473524 -0.1668584118127179 1 0 0 0
160 1 1.72 24.7800007 1.77 0.9827252222267208 0.14035999698015708 -0.12062424651442537 1 0 0 0
161 1 1.72 0 3.54 0.9623403404167364 -0.25632750509661145 -0.09053882778977235 1 0 0 0
162 1 1.72 1.77 5.31 0.9623403497765416 0.24719614816905508 0.1131154963846523 1 0 0 0
163 1 1.72 1.77 3.54 0.9827252078782782 -0.08214897976418123 0.16583941306064456 1 0 0 0
164 1 1.72 0 5.31 0.9827252178624297 0.00025409091536949987 -0.18507047742697025 1 0 0 0
165 1 1.72 3.54 3.54 0.9623403455434912 0.1260790902537383 0.24084252602068346 1 0 0 0
166 1 1.72 5.31 5.31 0.9623403410891218 0.15543808180488766 0.22302482067538978 1 0 0 0
167 1 1.72 5.31 3.54 0.9827252106733267 -0.14344567846326672 0.116938007667647 1 0 0 0
168 1 1.72 3.54 5.31 0.9827252157473234 -0.1577836586087236 -0.09672366520362323 1 0 0 0
169 1 1.72 7.0799999 3.54 0.9623403237787158 0.16743036178945295 0.21416856720940414 1 0 0 0
170 1 1.72 8.8500004 5.31 0.9623402968866903 0.1809762482557869 -0.20285154807222053 1 0 0 0
171 1 1.72 8.8500004 3.54 0.9827252096108825 0.06458614432678256 -0.17343526849014057 1 0 0 0
172 1 1.72 7.0799999 5.31 0.9827252119020993 -0.18213618096839543 -0.03282635334943487 1 0 0 0
173 1 1.72 10.6199999 3.54 0.9623403140005247 -0.0322190993432283 -0.26993156482131325 1 0 0 0
174 1 1.72 12.3900004 5.31 0.962340360864123 0.07435656003520834 0.26148065288208183 1 0 0 0
175 1 1.72 12.3900004 3.54 0.9827251987187461 -0.10428750135653714 -0.1528898324415698 1 0 0 0
176 1 1.72 10.6199999 5.31 0.9827252105041374 0.16394058852076246 0.08587574788649488 1 0 0 0
177 1 1.72 14.1599999 3.54 0.9623403340336114 0.14875905816050922 0.22753422623261593 1 0 0 0
178 1 1.72 15.9300004 5.31 0.9623403012737374 0.0025901742610588193 0.27183530959327123 1 0 0 0
179 1 1.72 15.9300004 3.54 0.9827252051521306 -0.18243099727891635 -0.031146466742199213 1 0 0 0
180 1 1.72 14.1599999 5.31 0.9827252225017186 -0.0599871391892099 -0.17507906839723084 1 0 0 0
181 1 1.72 17.7000008 3.54 0.9623403470655587 0.25187328466795755 -0.10227856510683912 1 0 0 0
182 1 1.72 19.4699993 5.31 0.9623403032494752 0.23397374355953623 0.13841036112388716 1 0 0 0
183 1 1.72 19.4699993 3.54 0.9827252143969897 -0.18335061511381998 -0.02517349649481976 1 0 0 0
184 1 1.72 17.7000008 5.31 0.9827252319312844 0.16515576608264684 -0.08351461821296564 1 0 0 0
185 1 1.72 21.2399998 3.54 0.9623403608175052 -0.08251851115962465 -0.2590207043030204 1 0 0 0
186 1 1.72 23.0100002 5.31 0.9623403321885261 0.2503487597055731 0.10595557350681699 1 0 0 0
187 1 1.72 23.0100002 3.54 0.9827252252545077 -0.1438189681207069 -0.11647847894427595 1 0 0 0
188 1 1.72 21.2399998 5.31 0.9827252108796256 0.094516882160584 0.15911542630504946 1 0 0 0
189 1 1.72 24.7800007 3.54 0.9623403417539328 -0.17888928302010607 0.2046941402519282 1 0 0 0
190 1 1.72 26.5499993 5.31 0.9623403072846746 -0.2187619714969054 0.1613825665988289 1 0 0 0
191 1 1.72 26.5499993 3.54 0.9827252139553773 0.07557008838787442 -0.16893879245870866 1 0 0 0
192 1 1.72 24.7800007 5.31 0.9827252234114497 0.13811731084855894 0.12318580971393826 1 0 0 0
193 1 1.72 0 7.0799999 0.9623403547983617 0.13391183515065486 -0.236576968306611 1 0 0 0
194 1 1.72 1.77 8.8500004 0.9623403142784892 0.2085173983004361 -0.17441792946940882 1 0 0 0
195 1 1.72 1.77 7.0799999 0.9827252236248004 -0.15562629114812468 -0.10015783721239828 1 0 0 0
196 1 1.72 0 8.8500004 0.9827252271687892 0.1184979702594667 -0.14215962482518874 1 0 0 0
197 1 1.72 3.54 7.0799999 0.9623403302603392 0.03878693671785732 -0.269066278627527 1 0 0 0
198 1 1.72 5.31 8.8500004 0.9623403431967749 -0.2597845911886331 -0.08008139632191874 1 0 0 0
199 1 1.72 5.31 7.0799999 0.9827252199753059 0.1379646270687366 -0.1233568145757289 1 0 0 0
200 1 1.72 3.54 8.8500004 0.9827252201457577 -0.122361689642563 0.1388479693668199 1 0 0 0
201 1 1.72 7.0799999 7.0799999 0.9623403029499261 0.20976218574613364 -0.1729189600629414 1 0 0 0
202 1 1.72 8.8500004 8.8500004 0.9623403289518392 0.17107583834237966 0.21126795499629816 1 0 0 0
203 1 1.72 8.8500004 7.0799999 0.9827252246281218 -0.10126715087330328 0.15490673656626797 1 0 0 0
204 1 1.72 7.0799999 8.8500004 0.9827252319450847 -0.18383291254121203 0.02136770378619278 1 0 0 0
205 1 1.72 10.6199999 7.0799999 0.962340324458284 0.22698590746173888 0.14959444419929382 1 0 0 0
206 1 1.72 12.3900004 8.8500004 0.9623403494265342 0.1806946240679866 0.20310220259402637 1 0 0 0
207 1 1.72 12.3900004 7.0799999 0.9827252236033087 -0.037034675559412755 -0.18132723926656963 1 0 0 0
208 1 1.72 10.6199999 8.8500004 0.9827252061458422 0.14824807636629658 0.11078662852214911 1 0 0 0
209 1 1.72 14.1599999 7.0799999 0.9623403678378839 -0.15936519599932278 -0.22023567089312276 1 0 0 0
210 1 1.72 15.9300004 8.8500004 0.9623403198060646 0.24600463266780248 -0.11568418034260768 1 0 0 0
211 1 1.72 15.9300004 7.0799999 0.9827252102236699 0.12327094056492108 0.1380414300240456 1 0 0 0
212 1 1.72 14.1599999 8.8500004 0.9827252190995036 0.060261968915688136 -0.1749846817531109 1 0 0 0
213 1 1.72 17.7000008 7.0799999 0.962340360653767 -0.2718220058361202 -0.003718521212224487 1 0 0 0
214 1 1.72 19.4699993 8.8500004 0.9623403486645404 0.20402566858134677 -0.1796512730045219 1 0 0 0
215 1 1.72 19.4699993 7.0799999 0.9827252046211357 -0.09992038961878903 0.15577897143317038 1 0 0 0
216 1 1.72 17.7000008 8.8500004 0.9827252104195067 -0.017206167418619564 -0.18426912006274573 1 0 0 0
217 1 1.72 21.2399998 7.0799999 0.9623403698483898 -0.19290031159342344 -0.1915475981243936 1 0 0 0
218 1 1.72 23.0100002 8.8500004 0.9623403330204645 0.10946186332025062 -0.24883565644923225 1 0 0 0
219 1 1.72 23.0100002 7.0799999 0.9827252159217803 0.14177819256355814 -0.11895416808544715 1 0 0 0
220 1 1.72 21.2399998 8.8500004 0.9827252273729171 -0.1819949749188713 -0.03359994924293933 1 0 0 0
221 1 1.72 24.7800007 7.0799999 0.9623403323401142 -0.15591952240546164 -0.222688543226569 1 0 0 0
222 1 1.72 26.5499993 8.8500004 0.9623403541497654 0.22890624561240516 -0.1466389221678107 1 0 0 0
223 1 1.72 26.5499993 7.0799999 0.9827252267656833 -0.1691999293680588 0.07498341536753504 1 0 0 0
224 1 1.72 24.7800007 8.8500004 0.9827252116038765 -0.1806278550233736 -0.04030801989395501 1 0 0 0
225 1 1.72 0 10.6199999 0.9623403539310066 -0.2581477999419925 0.08521007323699609 1 0 0 0
226 1 1.72 1.77 12.3900004 0.9623403088359357 -0.24766616205772923 0.1120830145969958 1 0 0 0
227 1 1.72 1.77 10.6199999 0.9827252167848428 0.16250370094646885 0.08856464008781594 1 0 0 0
228 1 1.72 0 12.3900004 0.9827252117007987 0.07486867040803255 0.1692508212061421 1 0 0 0
229 1 1.72 3.54 10.6199999 0.9623403367055148 -0.2691100478855622 0.03848192402345269 1 0 0 0
230 1 1.72 5.31 12.3900004 0.9623403087107324 -0.17999053128183184 -0.20372662781142756 1 0 0 0
231 1 1.72 5.31 10.6199999 0.9827252122025943 -0.17968066348821204 0.044339784277803045 1 0 0 0
232 1 1.72 3.54 12.3900004 0.9827252029194308 -0.17161176609934484 -0.06928619836033291 1 0 0 0
233 1 1.72 7.0799999 10.6199999 0.9623403430131482 -0.2264783724539542 -0.15036160088248654 1 0 0 0
234 1 1.72 8.8500004 12.3900004 0.9623403050833236 0.13802406602789138 -0.23420182409465531 1 0 0 0
235 1 1.72 8.8500004 10.6199999 0.9827252156939561 -0.1380549409507782 -0.12325576545681072 1 0 0 0
236 1 1.72 7.0799999 12.3900004 0.9827252071414051 -0.1744614848666712 0.0617604853202975 1 0 0 0
237 1 1.72 10.6199999 10.6199999 0.9623403567233838 -0.09649935888933331 -0.2541434861558682 1 0 0 0
238 1 1.72 12.3900004 12.3900004 0.9623403455857353 -0.2651318332453066 -0.06005139680232613 1 0 0 0
239 1 1.72 12.3900004 10.6199999 0.9827252165696915 0.14202193071922134 -0.11866305201214786 1 0 0 0
240 1 1.72 10.6199999 12.3900004 0.9827252038161554 0.016246020719689794 0.18435628710535312 1 0 0 0
241 1 1.72 14.1599999 10.6199999 0.9623403616094398 -0.2093294172170364 -0.1734422771557976 1 0 0 0
242 1 1.72 15.9300004 12.3900004 0.9623403759330691 -0.2152584156997067 0.16602655004381553 1 0 0 0
243 1 1.72 15.9300004 10.6199999 0.9827252145468416 0.14283790697508125 0.11767958627069648 1 0 0 0
244 1 1.72 14.1599999 12.3900004 0.9827252076763213 -0.07189643529252449 0.17053465568546142 1 0 0 0
245 1 1.72 17.7000008 10.6199999 0.9623403577260053 -0.1403478265097841 -0.23281650174711263 1 0 0 0
246 1 1.72 19.4699993 12.3900004 0.962340316405024 -0.2384247066451908 -0.13059393049691387 1 0 0 0
247 1 1.72 19.4699993 10.6199999 0.9827252083386051 -0.058439207318541686 -0.1756018904904665 1 0 0 0
248 1 1.72 17.7000008 12.3900004 0.982725199227812 0.059473011477863484 0.17525451123554972 1 0 0 0
249 1 1.72 21.2399998 10.6199999 0.9623403082961501 0.08557706338164166 0.2580265436954987 1 0 0 0
250 1 1.72 23.0100002 12.3900004 0.9623403226443837 0.14377853745894878 0.23071375247017423 1 0 0 0
251 1 1.72 23.0100002 10.6199999 0.9827252025614287 -0.16626766566975335 0.0812787770782148 1 0 0 0
252 1 1.72 21.2399998 12.3900004 0.9827252046832711 0.11401407559728097 -0.1457805290356727 1 0 0 0
253 1 1.72 24.7800007 10.6199999 0.962340305730035 0.26851224647430316 -0.042453615402526096 1 0 0 0
254 1 1.72 26.5499993 12.3900004 0.9623403316616482 -0.2025087556402175 -0.18135955984286922 1 0 0 0
255 1 1.72 26.5499993 10.6199999 0.9827252074690633 -0.15132173009616337 -0.10654999111023239 1 0 0 0
256 1 1.72 24.7800007 12.3900004 0.9827252284098811 0.1621876021738496 0.08914206160867146 1 0 0 0
257 1 12.41 24.7800007 12.3900004 0.9997811465678244 -0.013588362333138164 -0.015906457073466874 -1 0 0 0
258 1 12.41 26.5499993 10.6199999 0.9997811465599828 -0.014412224659694124 0.015163995633224969 -1 0 0 0
259 1 12.41 26.5499993 12.3900004 0.9997639941772748 -0.009056966637201706 -0.019746576970059403 -1 0 0 0
260 1 12.41 24.7800007 10.6199999 0.9997639939633818 0.003334827688525317 -0.021467074758222304 -1 0 0 0
261 1 12.41 21.2399998 12.3900004 0.9997811468287559 -0.020029032278808985 0.006041217737520074 -1 0 0 0
262 1 12.41 23.0100002 10.6199999 0.999781146458707 -0.00818948148155134 0.01925075527808935 -1 0 0 0
263 1 12.41 23.0100002 12.3900004 0.9997639941918947 0.013394143531898646 0.01710417599641622 -1 0 0 0
264 1 12.41 21.2399998 10.6199999 0.9997639940947443 -0.0023212686138285336 0.021600181104486336 -1 0 0 0
265 1 12.41 17.7000008 12.3900004 0.9997811464801689 -0.008280108220479768 0.019211948122365454 -1 0 0 0
266 1 12.41 19.4699993 10.6199999 0.9997811468575846 -0.01633900519699584 0.013065041037271971 -1 0 0 0
267 1 12.41 19.4699993 12.3900004 0.9997639938297184 -0.005175722959454848 -0.021099017358580545 -1 0 0 0
268 1 12.41 17.7000008 10.6199999 0.9997639938859528 -0.01670492213459781 -0.013888920249081123 -1 0 0 0
269 1 12.41 14.1599999 12.3900004 0.9997811465040453 0.0208201334094259 0.0020447835754098045 -1 0 0 0
270 1 12.41 15.9300004 10.6199999 0.999781146745403 -0.020359698535935083 -0.004810539260096947 -1 0 0 0
271 1 12.41 15.9300004 12.3900004 0.9997639943100962 0.015001977788479472 0.015712935548634042 -1 0 0 0
272 1 12.41 14.1599999 10.6199999 0.9997639941221879 -0.015095045775757276 -0.015623560729793502 -1 0 0 0
273 1 12.41 10.6199999 12.3900004 0.9997811464707644 0.010809581669727137 0.01791122848185889 -1 0 0 0
274 1 12.41 12.3900004 10.6199999 0.9997811465065584 -0.005263505590324378 -0.02024733560081886 -1 0 0 0
275 1 12.41 12.3900004 12.3900004 0.999763994096611 -0.002702186946775736 0.02155584128945102 -1 0 0 0
276 1 12.41 10.6199999 10.6199999 0.9997639939314681 0.017409297355329034 0.0129951069173489 -1 0 0 0
277 1 12.41 7.0799999 12.3900004 0.9997811467400222 -0.013379201177979885 -0.01608277336300377 -1 0 0 0
278 1 12.41 8.8500004 10.6199999 0.9997811464154968 0.016062836312071067 0.013403154916911525 -1 0 0 0
279 1 12.41 8.8500004 12.3900004 0.9997639939484912 0.016865792459301022 -0.013693116843179906 -1 0 0 0
280 1 12.41 7.0799999 10.6199999 0.999763993911895 -0.021003581393832033 -0.005550319447488367 -1 0 0 0
281 1 12.41 3.54 12.3900004 0.9997811467260492 0.01507757387723055 0.014502600357265234 -1 0 0 0
282 1 12.41 5.31 10.6199999 0.9997811464151934 0.020667980067108134 0.003239424743300372 -1 0 0 0
283 1 12.41 5.31 12.3900004 0.9997639938613276 -0.00559624515472741 -0.02099139391787915 -1 0 0 0
284 1 12.41 3.54 10.6199999 0.9997639941474163 0.020487970829912338 0.007224891533967236 -1 0 0 0
285 1 12.41 0 12.3900004 0.999781146416816 -0.01579804807748485 0.013714260695300613 -1 0 0 0
286 1 12.41 1.77 10.6199999 0.9997811466867351 -0.003034928813550019 0.020698983957038092 -1 0 0 0
287 1 12.41 1.77 12.3900004 0.9997639940232458 -0.012564265560131405 0.01772273922457271 -1 0 0 0
288 1 12.41 0 10.6199999 0.9997639941049256 -0.020479107210937215 0.007249983393735036 -1 0 0 0
289 1 12.41 24.7800007 8.8500004 0.9997811465510769 0.0154278633745414 0.014129403126490104 -1 0 0 0
290 1 12.41 26.5499993 7.0799999 0.9997811464609903 -0.012138585555269582 -0.01703860093625972 -1 0 0 0
291 1 12.41 26.5499993 8.8500004 0.9997639940652127 -0.01452242997591261 -0.0161572026776949 -1 0 0 0
292 1 12.41 24.7800007 7.0799999 0.9997639940283372 -0.015908934471978966 -0.014793986902573306 -1 0 0 0
293 1 12.41 21.2399998 8.8500004 0.9997811465839871 0.017721920690937688 -0.011117214679606826 -1 0 0 0
294 1 12.41 23.0100002 7.0799999 0.9997811466232658 -0.0031928352363035047 -0.020675218495142866 -1 0 0 0
295 1 12.41 23.0100002 8.8500004 0.9997639939175332 -0.00859434225372826 0.019952286768396162 -1 0 0 0
296 1 12.41 21.2399998 7.0799999 0.9997639940266384 0.01715066653952492 0.01333457480213497 -1 0 0 0
297 1 12.41 17.7000008 8.8500004 0.9997811464845466 -0.020880111908559304 0.0012961715671662803 -1 0 0 0
298 1 12.41 19.4699993 7.0799999 0.9997811467992233 -0.01627603509361075 0.01314340847960157 -1 0 0 0
299 1 12.41 19.4699993 8.8500004 0.9997639940863052 0.0003860062235271877 -0.021721121697407184 -1 0 0 0
300 1 12.41 17.7000008 7.0799999 0.9997639940496358 0.02008674003682885 0.008275208554015923 -1 0 0 0
301 1 12.41 14.1599999 8.8500004 0.9997811466009188 0.014184277073588044 -0.015377424532476043 -1 0 0 0
302 1 12.41 15.9300004 7.0799999 0.9997811463819964 -0.020159763223323676 -0.00558956938238784 -1 0 0 0
303 1 12.41 15.9300004 8.8500004 0.9997639939989315 0.00279538528392277 -0.0215439579562112 -1 0 0 0
304 1 12.41 14.1599999 7.0799999 0.9997639938937578 0.005732262588584736 0.02095465769745389 -1 0 0 0
305 1 12.41 10.6199999 8.8500004 0.9997811465815233 0.0044642873772108285 0.020438421620769722 -1 0 0 0