LAMMPS (19 Nov 2024 - Development - patch_19Nov2024-836-ge548c656ce)
OMP_NUM_THREADS environment is not set. Defaulting to 1 thread. (src/comm.cpp:99)
  using 1 OpenMP thread(s) per MPI task

# Created 2011-01-07

# General parameters

variable	sname index SiH4
log		${sname}.log
log		SiH4.log
