LAMMPS (19 Nov 2024 - Development - patch_19Nov2024-836-ge548c656ce)
OMP_NUM_THREADS environment is not set. Defaulting to 1 thread. (src/comm.cpp:99)
  using 1 OpenMP thread(s) per MPI task
# Created 2010-11-28

# General parameters

variable	sname index CH4fc.bohr

units		electron
newton		on
boundary	f f f

atom_style      electron

read_data       data.${sname}
read_data       data.CH4fc.bohr
Reading data file ...
  orthogonal box = (-1000 -1000 -1000) to (1000 1000 1000)
  1 by 2 by 2 MPI processor grid
  reading atoms ...
  13 atoms
  read_data CPU = 0.000 seconds

pair_style      eff/cut 1000.0
pair_coeff      * *

compute         energies all pair eff/cut
variable        eke equal c_energies[1]
variable        epauli equal c_energies[2]
variable        estatics equal c_energies[3]
variable        errestrain equal c_energies[4]

comm_modify	vel yes

compute         peratom all stress/atom NULL
compute         p all reduce sum c_peratom[1] c_peratom[2] c_peratom[3]
variable        press equal -(c_p[1]+c_p[2]+c_p[3])/(3*vol)

compute         effTemp all temp/eff
compute         effPress all pressure effTemp

thermo          10
thermo_style    custom step etotal pe ke v_eke v_epauli v_estatics v_errestrain temp press v_press
thermo_modify   temp effTemp press effPress

# Minimization

min_style       cg
dump            1 all xyz 10 ${sname}.min.xyz
dump            1 all xyz 10 CH4fc.bohr.min.xyz
compute         1 all property/atom spin eradius erforce
dump            2 all custom 10 ${sname}.min.lammpstrj id type q c_1[1] c_1[2] x y z fx fy fz c_1[3]
dump            2 all custom 10 CH4fc.bohr.min.lammpstrj id type q c_1[1] c_1[2] x y z fx fy fz c_1[3]
min_modify      line quadratic
minimize        0 1.0e-6 1000 10000

CITE-CITE-CITE-CITE-CITE-CITE-CITE-CITE-CITE-CITE-CITE-CITE-CITE

Your simulation uses code contributions which should be cited:
- EFF package: doi:10.1002/jcc.21637
CITE-CITE-CITE-CITE-CITE-CITE-CITE-CITE-CITE-CITE-CITE-CITE-CITE

Generated 0 of 3 mixed pair_coeff terms from geometric mixing rule
Neighbor list info ...
  update: every = 1 steps, delay = 0 steps, check = yes
  max neighbors/atom: 2000, page size: 100000
  master list distance cutoff = 1002
  ghost atom cutoff = 1002
  binsize = 501, bins = 4 4 4
  1 neighbor lists, perpetual/occasional/extra = 1 0 0
  (1) pair eff/cut, perpetual
      attributes: half, newton on
      pair build: half/bin/atomonly/newton
      stencil: half/bin/3d
      bin: standard
Per MPI rank memory allocation (min/avg/max) = 6.129 | 6.129 | 6.129 Mbytes
   Step         TotEng         PotEng         KinEng         v_eke         v_epauli      v_estatics    v_errestrain       Temp          Press         v_press    
         0  -28.207572     -28.207572      0              32.949786      9.9929585     -71.150317      0              0              18367.433      18367.433    
        10  -33.485206     -33.485206      0              33.69146       2.6815589     -69.858225      0              0              8932.6658      8932.6658    
        20  -34.056077     -34.056077      0              33.69146       1.0302121     -68.777749      0              0              527.06631      527.06631    
        30  -34.074464     -34.074464      0              33.127689      0.94710482    -68.149258      0              0             -0.0020614612  -0.0020614612 
        33  -34.074464     -34.074464      0              33.127695      0.9471051     -68.149264      0              0             -0.0011914924  -0.0011914924 
Loop time of 0.00117173 on 4 procs for 33 steps with 13 atoms

100.1% CPU use with 4 MPI tasks x 1 OpenMP threads

Minimization stats:
  Stopping criterion = force tolerance
  Energy initial, next-to-last, final = 
     -28.2075719657698  -34.0744640436516  -34.0744640436524
  Force two-norm initial, final = 6.4559548 9.9647483e-07
  Force max component initial, final = 1.2893022 2.0263238e-07
  Final line search alpha, max atom move = 1 2.0263238e-07
  Iterations, force evaluations = 33 40

MPI task timing breakdown:
Section |  min time  |  avg time  |  max time  |%varavg| %total
---------------------------------------------------------------
Pair    | 4.6832e-05 | 0.00010571 | 0.00014891 |   0.0 |  9.02
Neigh   | 0          | 0          | 0          |   0.0 |  0.00
Comm    | 0.00036242 | 0.00041713 | 0.0004799  |   0.0 | 35.60
Output  | 0.00025839 | 0.00026605 | 0.00027779 |   0.0 | 22.71
Modify  | 0          | 0          | 0          |   0.0 |  0.00
Other   |            | 0.0003828  |            |       | 32.67

Nlocal:           3.25 ave           4 max           3 min
Histogram: 3 0 0 0 0 0 0 0 0 1
Nghost:           9.75 ave          10 max           9 min
Histogram: 1 0 0 0 0 0 0 0 0 3
Neighs:           19.5 ave          31 max          10 min
Histogram: 2 0 0 0 0 0 0 1 0 1

Total # of neighbors = 78
Ave neighs/atom = 6
Neighbor list builds = 0
Dangerous builds = 0

undump		1
undump		2

# Equilibrate at 300K
velocity        all create 10000.0 4928459 rot yes mom yes dist gaussian

timestep        0.001

dump            1 all custom 1000 ${sname}.nvt.lammpstrj id type q c_1[1] c_1[2] x y z fx fy fz c_1[3]
dump            1 all custom 1000 CH4fc.bohr.nvt.lammpstrj id type q c_1[1] c_1[2] x y z fx fy fz c_1[3]
#fix		0 all langevin/eff 300.0 300.0 0.1
fix             1 all nvt/eff temp 10000.0 10000.0 0.1

run             40000
Generated 0 of 3 mixed pair_coeff terms from geometric mixing rule
Per MPI rank memory allocation (min/avg/max) = 5.738 | 5.738 | 5.738 Mbytes
   Step         TotEng         PotEng         KinEng         v_eke         v_epauli      v_estatics    v_errestrain       Temp          Press         v_press    
        33  -33.504437     -34.074464      0.57002676     33.127695      0.9471051     -68.149264      0              30000          1397.5624      1397.5624    
        40  -33.50973      -34.054848      0.54511768     33.133353      1.0651748     -68.253375      0              28689.057      1958.7427      1957.8383    
        50  -33.529224     -33.985285      0.45606028     33.19718       1.187645      -68.370109      0              24002.046      2184.2878      2162.4063    
        60  -33.554154     -33.928678      0.37452418     33.33506       1.1699487     -68.433687      0              19710.874      1565.8019      1509.0485    
        70  -33.588356     -33.904193      0.31583728     33.447008      1.0565506     -68.407752      0              16622.234      574.11741      540.1246     
        80  -33.619322     -33.922545      0.30322251     33.358769      0.98439739    -68.265712      0              15958.33       279.07644      236.19581    
        90  -33.646159     -33.970005      0.32384556     33.076155      0.98755933    -68.03372       0              17043.703      841.06685      741.64296    
       100  -33.686896     -33.995314      0.30841799     32.80482       0.99480068    -67.794935      0              16231.764      1323.9556      1257.1519    
       110  -33.72732      -34.005845      0.27852585     32.675946      0.9544297     -67.636222      0              14658.567      1279.4219      1257.0243    
       120  -33.756331     -34.013563      0.25723183     32.706983      0.87850563    -67.599051      0              13537.882      790.40422      762.66151    
       130  -33.779016     -34.013892      0.23487592     32.849661      0.81407331    -67.677627      0              12361.31       156.90917      118.83253    
       140  -33.79986      -34.01025       0.21038991     33.01656       0.8059111     -67.832722      0              11072.633     -218.63205     -240.56813    
       150  -33.815712     -34.013514      0.19780276     33.126048      0.87466003    -68.014222      0              10410.183     -39.807669     -51.58316     
       160  -33.826213     -34.015608      0.18939509     33.166152      1.0040552     -68.185815      0              9967.6945      598.71197      580.83118    
       170  -33.835453     -34.00312       0.16766787     33.193183      1.1282773     -68.32458       0              8824.2103      1179.5055      1167.1441    
       180  -33.84251      -33.990983      0.14847259     33.251284      1.1650665     -68.407333      0              7813.9798      1232.8908      1227.9094    
       190  -33.844617     -33.997429      0.15281135     33.318497      1.0971917     -68.413117      0              8042.3249      777.25486      755.05919    
       200  -33.844246     -34.013373      0.16912751     33.333041      0.98886446    -68.335278      0              8901.0302      206.91878      156.53513    
       210  -33.846903     -34.021187      0.17428483     33.250144      0.91639009    -68.187722      0              9172.4549     -58.748992     -110.70916    
       220  -33.850545     -34.025362      0.17481737     33.072303      0.9057974     -68.003462      0              9200.4821      165.37375      121.20317    
       230  -33.853448     -34.027156      0.1737079      32.872411      0.9334203     -67.832987      0              9142.0921      639.53119      601.10661    
       240  -33.857545     -34.01937       0.16182471     32.756566      0.95477456    -67.73071       0              8516.6903      906.88206      886.01311    
       250  -33.858868     -34.011647      0.15277853     32.778856      0.93545808    -67.72596       0              8040.5976      730.60485      710.30401    
       260  -33.857546     -34.008206      0.15065971     32.915573      0.88421923    -67.807999      0              7929.0859      211.28412      177.85773    
       270  -33.858547     -34.002881      0.14433387     33.076976      0.85354704    -67.933404      0              7596.1627     -249.55014     -274.02185    
       280  -33.858486     -34.003545      0.14505846     33.157708      0.89554508    -68.056798      0              7634.2973     -143.39675     -163.32662    
       290  -33.85533      -34.009829      0.15449891     33.145122      1.0068496     -68.161801      0              8131.1397      536.49443      504.55994    
       300  -33.852564     -34.013627      0.16106259     33.127588      1.1126505     -68.253866      0              8476.5803      1184.3905      1148.6498    
       310  -33.849196     -34.021165      0.17196983     33.182196      1.1287315     -68.332093      0              9050.6188      1244.3916      1205.2072    
       320  -33.846798     -34.025529      0.17873097     33.295342      1.0524541     -68.373324      0              9406.4517      681.85063      651.63628    
       330  -33.844579     -34.01917       0.17459113     33.358936      0.96431989    -68.342426      0              9188.5756      64.572148      46.709389    
       340  -33.837604     -34.012223      0.17461882     33.2774        0.93312988    -68.222753      0              9190.0329     -12.354671     -50.087619    
       350  -33.830391     -34.004662      0.17427071     33.081343      0.9529013     -68.038906      0              9171.7122      377.46437      323.61836    
       360  -33.827196     -33.995359      0.16816232     32.882268      0.97241465    -67.850042      0              8850.2328      762.88683      725.75423    
       370  -33.823263     -33.991649      0.16838606     32.769925      0.95456178    -67.716136      0              8862.008       832.4064       810.54006    
       380  -33.815427     -33.992969      0.17754143     32.772087      0.90437032    -67.669426      0              9343.8473      576.0457       548.85389    
       390  -33.805017     -33.9954        0.19038364     32.857419      0.8576726     -67.710493      0              10019.721      223.24109      181.62138    
       400  -33.792722     -34.001564      0.20884195     32.96511       0.85378511    -67.820459      0              10991.166      88.116846      28.220042    
       410  -33.779132     -34.009881      0.23074945     33.053042      0.91138339    -67.974307      0              12144.138      331.92866      255.45138    
       420  -33.769051     -34.005011      0.23595971     33.125676      1.0167116     -68.147398      0              12418.349      815.74562      755.84852    
       430  -33.761113     -33.98912       0.22800725     33.20107       1.123205      -68.313395      0              11999.818      1266.5228      1237.0065    
       440  -33.748294     -33.983086      0.23479133     33.290143      1.1657215     -68.43895       0              12356.858      1385.6341      1351.4215    
       450  -33.734406     -33.988971      0.2545651      33.390288      1.1048265     -68.484086      0              13397.534      945.71213      905.93798    
       460  -33.721547     -33.998755      0.27720776     33.427342      0.98444616    -68.410543      0              14589.197      281.28542      247.80285    
       470  -33.704552     -34.006227      0.30167489     33.298667      0.90160972    -68.206504      0              15876.88       81.624336      22.737954    
       480  -33.68659      -34.001671      0.31508147     33.012932      0.90507478    -67.919678      0              16582.457      559.59437      460.34498    
       490  -33.678917     -33.975422      0.29650507     32.714232      0.95709038    -67.646744      0              15604.797      1219.1446      1135.8225    
       500  -33.677709     -33.947153      0.26944334     32.550079      0.98508036    -67.482312      0              14180.563      1512.2244      1468.3345    
       510  -33.671256     -33.943943      0.27268697     32.583007      0.94983112    -67.476781      0              14351.272      1260.4574      1202.4636    
       520  -33.663601     -33.959405      0.29580426     32.788788      0.87345749    -67.621651      0              15567.914      579.65157      489.28014    
       530  -33.66626      -33.973981      0.30772148     33.053802      0.82583808    -67.853622      0              16195.107     -58.034544     -124.31984    
       540  -33.674169     -33.990222      0.31605327     33.21874       0.87808242    -68.087044      0              16633.602      36.663297      0.85195854   
       550  -33.683393     -33.995335      0.31194239     33.23513       1.0321713     -68.262637      0              16417.25       891.198        858.91177    
       560  -33.698761     -33.981048      0.28228668     33.20478       1.1776898     -68.363518      0              14856.496      1669.7023      1650.8584    
       570  -33.717153     -33.975759      0.25860595     33.228172      1.1931615     -68.397093      0              13610.2        1675.1004      1664.6378    
       580  -33.737943     -33.982697      0.24475462     33.298584      1.0873168     -68.368598      0              12881.217      954.76568      946.41895    
       590  -33.760743     -33.987296      0.22655282     33.317974      0.96869757    -68.273967      0              11923.273      200.22374      189.48749    
       600  -33.780625     -33.99535       0.21472492     33.209872      0.91364427    -68.118867      0              11300.781      17.012898     -26.263819    
       610  -33.801124     -34.003411      0.20228759     33.014952      0.92086814    -67.939231      0              10646.216      331.2334       260.59343    
       620  -33.826012     -33.99984       0.17382734     32.841181      0.94875391    -67.789775      0              9148.378       687.18096      635.46977    
       630  -33.848932     -33.990556      0.14162424     32.762772      0.95967469    -67.713003      0              7453.5575      788.22118      768.93257    
       640  -33.863508     -33.98935       0.12584151     32.790366      0.94346792    -67.723183      0              6622.9265      622.51513      603.29086    
       650  -33.872063     -33.998342      0.12627875     32.896255      0.91544473    -67.810042      0              6645.9378      318.96193      276.23936    
       660  -33.882013     -34.007447      0.1254344      33.037922      0.89982616    -67.945195      0              6601.5008      26.277823     -14.855805    
       670  -33.893868     -34.015098      0.12122955     33.157384      0.91550853    -68.087991      0              6380.2031     -69.127276     -83.045974    
       680  -33.90199      -34.024619      0.12262927     33.207426      0.97061832    -68.202663      0              6453.8692      179.2674       174.92498    
       690  -33.907223     -34.023065      0.11584233     33.201112      1.0504056     -68.274583      0              6096.6783      621.0031       616.48235    
       700  -33.910681     -34.010721      0.10003939     33.189674      1.1049335     -68.305328      0              5264.9839      887.57811      882.21868    
       710  -33.910394     -34.006983      0.096588908    33.205502      1.0854188     -68.297904      0              5083.3881      741.2864       718.42196    
       720  -33.910738     -34.007988      0.09724947     33.234182      1.0057306     -68.2479        0              5118.1528      254.86292      228.15484    
       730  -33.912118     -34.007268      0.095149926    33.208519      0.93295567    -68.148742      0              5007.6557     -122.98708     -140.3377     
       740  -33.909006     -34.012794      0.10378823     33.085822      0.91090769    -68.009524      0              5462.282      -33.773552     -68.15883     
       750  -33.905965     -34.015581      0.1096157      32.924308      0.9269907     -67.86688       0              5768.9763      324.48383      282.19893    
       760  -33.905594     -34.011155      0.10556076     32.815896      0.94184826    -67.768899      0              5555.5688      565.98857      541.01003    
       770  -33.903509     -34.007498      0.10398827     32.808591      0.93228334    -67.748372      0              5472.8098      520.29721      505.03881    
       780  -33.898511     -34.006502      0.10799059     32.894562      0.9094726     -67.810537      0              5683.4484      262.9007       243.51583    
       790  -33.893153     -34.004757      0.11160407     33.023637      0.90648792    -67.934882      0              5873.6229      38.783063      20.859351    
       800  -33.88679      -34.003564      0.11677474     33.134286      0.9485412     -68.086392      0              6145.7506      98.67755       82.498553    
       810  -33.877761     -34.002234      0.12447232     33.202449      1.025491      -68.230174      0              6550.8673      426.88962      402.23398    
       820  -33.868106     -33.998221      0.13011491     33.24887       1.0883042     -68.335396      0              6847.8314      718.29857      689.74147    
       830  -33.858477     -33.996415      0.1379381      33.282924      1.0919766     -68.371316      0              7259.5592      733.58172      709.22252    
       840  -33.84606      -33.999115      0.15305551     33.270679      1.0476845     -68.317479      0              8055.1751      563.08086      531.65251    
       850  -33.828399     -34.004788      0.17638898     33.179495      0.99762587    -68.181909      0              9283.1948      474.22085      408.672      
       860  -33.813857     -33.999927      0.18607042     33.043109      0.9578939     -68.00093       0              9792.7201      468.85396      400.27393    
       870  -33.805145     -33.986249      0.1811044      32.909082      0.92727626    -67.822608      0              9531.3631      467.32196      432.22502    
       880  -33.794673     -33.976251      0.18157785     32.805239      0.90887797    -67.690368      0              9556.2805      497.1281       475.52998    
       890  -33.783953     -33.96373       0.17977716     32.766913      0.90610816    -67.636751      0              9461.5118      504.30536      488.45141    
       900  -33.774107     -33.951472      0.17736573     32.809859      0.91437479    -67.675706      0              9334.6003      454.13763      441.22146    
       910  -33.762288     -33.953732      0.19144392     32.917058      0.92651047    -67.7973        0              10075.523      398.71272      367.74575    
       920  -33.750505     -33.969806      0.21930089     33.053232      0.94442434    -67.967462      0              11541.61       392.3745       342.07341    
       930  -33.745085     -33.981307      0.23622183     33.169213      0.98703375    -68.137553      0              12432.144      530.11431      500.5833     
       940  -33.740274     -33.986322      0.24604814     33.211099      1.0619947     -68.259415      0              12949.294      920.88878      900.59649    
       950  -33.730263     -33.98991       0.25964705     33.197818      1.1233622     -68.31109       0              13664.992      1301.9547      1238.5835    
       960  -33.724885     -33.985674      0.2607886      33.21213       1.1102727     -68.308076      0              13725.071      1187.6589      1101.0282    
       970  -33.728772     -33.971362      0.24259006     33.256022      1.0312643     -68.258648      0              12767.299      604.84428      548.42221    
       980  -33.734039     -33.955647      0.22160799     33.225755      0.96687814    -68.14828       0              11663.031      202.44828      174.79607    
       990  -33.732583     -33.949508      0.21692517     33.060475      0.96966865    -67.979652      0              11416.578      421.0654       370.11724    
      1000  -33.735249     -33.938503      0.20325381     32.85662       1.0011852     -67.796308      0              10697.067      837.59485      794.18717    
      1010  -33.7407       -33.935885      0.19518486     32.73011       0.99203649    -67.658032      0              10272.405      971.57201      954.17425    
      1020  -33.742349     -33.950611      0.20826187     32.720668      0.93083579    -67.602115      0              10960.636      747.84948      728.32514    
      1030  -33.743715     -33.966581      0.22286643     32.799569      0.8673394     -67.63349       0              11729.262      377.48899      352.20493    
      1040  -33.744371     -33.984362      0.23999161     32.89597       0.85556744    -67.735899      0              12630.544      239.70297      197.16674    
      1050  -33.743952     -34.003009      0.25905719     32.97435       0.90732978    -67.884689      0              13633.949      452.38226      377.08453    
      1060  -33.750918     -33.997725      0.24680714     33.061375      0.99506337    -68.054164      0              12989.239      744.46772      681.54342    
      1070  -33.761142     -33.973021      0.21187919     33.164701      1.0754367     -68.213159      0              11151.013      900.27905      868.23294    
      1080  -33.766993     -33.95062       0.18362691     33.260265      1.1140681     -68.324953      0              9664.1203      855.00236      826.05644    
      1090  -33.771554     -33.935906      0.16435234     33.314917      1.1034841     -68.354307      0              8649.717       631.23986      604.12851    
      1100  -33.776589     -33.933036      0.15644705     33.28442       1.0674217     -68.284878      0              8233.6686      448.53178      432.68642    
      1110  -33.778061     -33.951624      0.1735631      33.150764      1.0303371     -68.132725      0              9134.471       520.2187       492.65379    
      1120  -33.779011     -33.977474      0.19846388     32.969343      0.99777869    -67.944596      0              10444.977      739.5279       697.72136    
      1130  -33.783538     -33.989136      0.20559739     32.827832      0.96389539    -67.780863      0              10820.407      830.96907      798.33154    
      1140  -33.786931     -33.989348      0.2024167      32.778481      0.92174555    -67.689574      0              10653.01       673.40976      637.96415    
      1150  -33.787792     -33.984039      0.19624734     32.827623      0.87540569    -67.687068      0              10328.322      311.76465      254.86499    
      1160  -33.793054     -33.967425      0.17437107     32.935587      0.85004907    -67.753061      0              9176.9937     -78.20251      -121.56291    
      1170  -33.800138     -33.952469      0.15233087     33.0103        0.88508731    -67.847856      0              8017.0377     -89.590677     -104.175      
      1180  -33.799595     -33.956896      0.15730145     32.997589      0.99088556    -67.945371      0              8278.6348      493.18575      455.65692    
      1190  -33.800768     -33.958863      0.15809526     32.980468      1.0998308     -68.039162      0              8320.4124      1089.3338      1047.1679    
      1200  -33.805641     -33.961196      0.15555486     33.044247      1.1178506     -68.123293      0              8186.7136      1093.1589      1074.9236    
      1210  -33.807721     -33.971003      0.16328237     33.159206      1.0482051     -68.178414      0              8593.4054      596.0597       583.20826    
      1220  -33.807225     -33.973166      0.16594032     33.224144      0.98533673    -68.182647      0              8733.2908      180.80287      157.06686    
      1230  -33.80425      -33.970879      0.16662914     33.176282      0.98878459    -68.135945      0              8769.5431      280.34834      229.97893    
      1240  -33.801751     -33.97099       0.16923932     33.066549      1.0246829     -68.062222      0              8906.9142      647.45106      577.66069    
      1250  -33.803451     -33.970262      0.16681079     32.990602      1.0281632     -67.989027      0              8779.1032      774.31587      718.53785    
      1260  -33.806784     -33.965302      0.15851807     32.975453      0.98207826    -67.922833      0              8342.6644      519.68984      492.07378    
      1270  -33.805118     -33.96083       0.15571206     32.966439      0.92896337    -67.856232      0              8194.9867      225.04448      192.0627     
      1280  -33.796552     -33.962411      0.16585877     32.920347      0.91073558    -67.793493      0              8728.9992      213.94824      133.47501    
      1290  -33.793274     -33.956312      0.16303806     32.874278      0.92724339    -67.757834      0              8580.5478      364.4726       285.85638    
      1300  -33.796029     -33.951216      0.15518738     32.864089      0.95538941    -67.770695      0              8167.3733      513.48518      487.27262    
      1310  -33.792405     -33.964376      0.17197081     32.884571      0.98471187    -67.833659      0              9050.6704      684.69278      676.21398    
      1320  -33.781874     -33.973587      0.19171352     32.939697      1.0209214     -67.934205      0              10089.711      831.35272      810.90339    
      1330  -33.769141     -33.959057      0.18991564     33.035113      1.055871      -68.050041      0              9995.0909      819.52344      784.37756    
      1340  -33.751481     -33.941337      0.18985573     33.148695      1.0598463     -68.149878      0              9991.9378      617.91053      539.55887    
      1350  -33.738378     -33.922635      0.18425675     33.243277      1.0306059     -68.196518      0              9697.2685      289.73499      211.89343    
      1360  -33.732103     -33.910317      0.17821394     33.230751      1.0167152     -68.157783      0              9379.2406      236.02854      210.61113    
      1370  -33.712772     -33.935867      0.22309564     33.061283      1.0386679     -68.035818      0              11741.324      766.38372      714.96979    
      1380  -33.686512     -33.970348      0.28383564     32.868635      1.0403292     -67.879312      0              14938.017      1270.0411      1176.8963    
      1390  -33.665826     -33.98085       0.31502361     32.796769      0.97763896    -67.755258      0              16579.411      1153.4245      1070.7682    
      1400  -33.652318     -33.962408      0.31008943     32.845609      0.88525104    -67.693268      0              16319.73       555.74418      517.55308    
      1410  -33.640686     -33.933626      0.29294008     32.902394      0.84161683    -67.677637      0              15417.175      124.54321      112.19746    
      1420  -33.626933     -33.908958      0.28202493     32.881709      0.90090062    -67.691567      0              14842.721      361.94022      334.07065    
      1430  -33.618763     -33.876163      0.25739981     32.831223      1.031391      -67.738777      0              13546.722      965.6346       941.14135    
      1440  -33.61132      -33.861582      0.25026203     32.844122      1.1207008     -67.826405      0              13171.068      1339.2378      1304.2628    
      1450  -33.602956     -33.878454      0.27549812     32.962948      1.0973482     -67.93875       0              14499.22       1150.8649      1090.7765    
      1460  -33.604229     -33.890601      0.2863723      33.114492      1.0234765     -68.028569      0              15071.519      621.96266      593.13519    
      1470  -33.59736      -33.922441      0.32508133     33.131778      1.0003337     -68.054553      0              17108.741      625.15328      541.343      
      1480  -33.590651     -33.959299      0.36864785     33.034096      1.0253785     -68.018773      0              19401.607      1066.9367      902.02274    
      1490  -33.611945     -33.953779      0.34183361     32.967773      1.0415739     -67.963126      0              17990.398      1200.2841      1111.9458    
      1500  -33.639215     -33.940961      0.30174636     32.94478       1.0315607     -67.917302      0              15880.642      1063.3747      1053.9259    
      1510  -33.656437     -33.93578       0.27934321     32.933115      1.0153481     -67.884243      0              14701.584      897.16565      871.55595    
      1520  -33.673881     -33.914957      0.24107613     32.94593       0.99954668    -67.860434      0              12687.622      640.24027      596.00976    
      1530  -33.694248     -33.888201      0.19395283     32.975731      0.9735774     -67.83751       0              10207.565      303.80622      275.66052    
      1540  -33.710035     -33.886672      0.17663677     32.970069      0.94484406    -67.801584      0              9296.2357      115.82619      86.345575    
      1550  -33.723902     -33.907193      0.18329061     32.901129      0.94529531    -67.753617      0              9646.4216      262.42903      222.44542    
      1560  -33.739564     -33.930771      0.19120724     32.79799       0.98523232    -67.713994      0              10063.066      678.62073      638.2799     
      1570  -33.754664     -33.948121      0.19345714     32.734378      1.0286284     -67.711127      0              10181.477      1031.0315      984.7648     
      1580  -33.766613     -33.95797       0.19135647     32.776734      1.0313802     -67.766084      0              10070.92       987.18298      916.36929    
      1590  -33.779425     -33.952931      0.17350593     32.924263      0.99283699    -67.870031      0              9131.4624      507.96173      432.19059    
      1600  -33.795458     -33.933611      0.13815229     33.078617      0.96641432    -67.978642      0              7270.8318      29.753231     -7.1575666    
      1610  -33.802407     -33.931787      0.12937982     33.111815      1.0029606     -68.046563      0              6809.1448      159.56534      112.51166    
      1620  -33.806482     -33.937534      0.13105158     33.050955      1.0749356     -68.063424      0              6897.1277      653.98735      589.77997    
      1630  -33.81552      -33.940243      0.12472319     33.013357      1.094173      -68.047773      0              6564.0704      807.96397      771.57993    
      1640  -33.822023     -33.950789      0.12876583     33.035349      1.0297254     -68.015863      0              6776.8306      463.13204      442.05971    
      1650  -33.825132     -33.956206      0.13107342     33.066545      0.94235839    -67.965109      0              6898.2774     -30.648461     -54.474093    
      1660  -33.824639     -33.956264      0.13162495     33.029294      0.90548094    -67.891039      0              6927.3039     -160.26974     -206.69137    
      1670  -33.82111      -33.959156      0.13804673     32.911448      0.93640522    -67.80701       0              7265.2761      197.22644      113.62965    
      1680  -33.8229       -33.951828      0.1289279      32.793506      1.001074      -67.746408      0              6785.3605      661.83022      587.42502    
      1690  -33.829109     -33.935589      0.10647932     32.751951      1.0490108     -67.73655       0              5603.9114      866.93359      838.3202     
      1700  -33.830627     -33.926822      0.096195222    32.800646      1.0487396     -67.776208      0              5062.6687      722.16993      709.21762    
      1710  -33.82532      -33.928293      0.10297236     32.907433      1.0058454     -67.841571      0              5419.3436      323.45754      283.42556    
      1720  -33.818676     -33.932921      0.11424475     33.015785      0.95574536    -67.904451      0              6012.5994     -87.901529     -155.96782    
      1730  -33.814304     -33.940964      0.1266603      33.065032      0.93963677    -67.945633      0              6666.0184     -186.98757     -257.74977    
      1740  -33.812512     -33.949537      0.13702507     33.031977      0.97775462    -67.959269      0              7211.5074      152.11086      107.1128     
      1750  -33.810213     -33.951595      0.14138165     32.952202      1.0476462     -67.951443      0              7440.7904      694.46819      679.52101    
      1760  -33.800855     -33.950311      0.14945661     32.896262      1.0922225     -67.938796      0              7865.7679      1033.0052      1003.6162    
      1770  -33.785522     -33.945516      0.15999371     32.922458      1.0686049     -67.936579      0              8420.3264      862.63877      784.79523    
      1780  -33.774799     -33.927699      0.15290014     33.012455      0.99574475    -67.935899      0              8046.9981      274.93141      188.61544    
      1790  -33.768856     -33.909666      0.14081012     33.052142      0.94459254    -67.9064        0              7410.7112     -129.31365     -190.8921     
      1800  -33.759127     -33.908264      0.14913736     32.955795      0.96687569    -67.830935      0              7848.9662      129.71192      71.305896    
      1810  -33.74935      -33.907478      0.15812778     32.786762      1.0309416     -67.725182      0              8322.1241      732.39175      690.81117    
      1820  -33.738544     -33.907752      0.1692089      32.672847      1.0534984     -67.634098      0              8905.3136      1056.6167      1033.7598    
      1830  -33.718269     -33.921063      0.2027937      32.686867      0.99653596    -67.604466      0              10672.852      840.13439      782.1654     
      1840  -33.695746     -33.92624       0.23049441     32.817029      0.9104929     -67.653762      0              12130.715      240.57815      148.74651    
      1850  -33.679981     -33.915348      0.2353664      32.963146      0.88390775    -67.762401      0              12387.124     -156.63329     -235.65384    
      1860  -33.663789     -33.909511      0.24572211     33.019703      0.96214244    -67.891357      0              12932.136      174.14593      93.722397    
      1870  -33.650436     -33.892394      0.24195829     32.996732      1.1145062     -68.003632      0              12734.049      988.55504      915.43567    
      1880  -33.642872     -33.862708      0.21983564     32.963409      1.238719      -68.064836      0              11569.754      1616.6316      1570.0008    
      1890  -33.631475     -33.861082      0.22960716     32.955736      1.2336967     -68.050514      0              12084.02       1652.0425      1585.5696    
      1900  -33.618623     -33.8853        0.26667658     32.981059      1.0990127     -67.965371      0              14034.95       1034.3604      930.98178    
      1910  -33.617572     -33.894329      0.27675687     33.00783       0.93461186    -67.836772      0              14565.467      152.90163      83.369929    
      1920  -33.619969     -33.900035      0.28006658     32.949434      0.83579686    -67.685266      0              14739.654     -271.09521     -307.69924    
      1930  -33.616749     -33.917436      0.30068662     32.779807      0.83987814    -67.537121      0              15824.869      67.908622      2.9182439    
      1940  -33.617605     -33.916871      0.29926616     32.59533       0.93161589    -67.443817      0              15750.111      814.02514      731.80078    
      1950  -33.621082     -33.894672      0.27358956     32.516034      1.042215      -67.452921      0              14398.774      1387.0824      1292.1889    
      1960  -33.620303     -33.875735      0.2554313      32.609288      1.0883002     -67.573323      0              13443.121      1371.0822      1230.3796    
      1970  -33.626972     -33.854903      0.2279308      32.849699      1.0516021     -67.756204      0              11995.795      693.83214      568.49211    
      1980  -33.644191     -33.834376      0.19018509     33.061677      1.0161026     -67.912156      0              10009.272      59.680528      29.41448     
      1990  -33.645315     -33.859848      0.21453251     33.054067      1.0576654     -67.97158       0              11290.655      374.52316      322.2027     
      2000  -33.642185     -33.894275      0.25208989     32.911163      1.1312853     -67.936723      0              13267.266      1121.202       1017.71      
      2010  -33.646979     -33.914332      0.26735272     32.819471      1.1351963     -67.869         0              14070.535      1378.6386      1271.645     
      2020  -33.655573     -33.922771      0.26719748     32.846976      1.050244      -67.819991      0              14062.365      955.50175      860.86439    
      2030  -33.669475     -33.904395      0.23492042     32.934813      0.95416028    -67.793368      0              12363.652      241.74775      191.54166    
      2040  -33.68208      -33.874963      0.19288334     32.960668      0.92661488    -67.762246      0              10151.278     -93.401961     -106.86557    
      2050  -33.684932     -33.866968      0.18203669     32.873442      0.96679744    -67.707208      0              9580.4285      154.76226      114.3452     
      2060  -33.685918     -33.876847      0.19092895     32.748953      1.014796      -67.640597      0              10048.42       568.95814      493.81721    
      2070  -33.693068     -33.886285      0.19321712     32.675082      1.0251387     -67.586506      0              10168.845      740.66398      676.07941    
      2080  -33.701761     -33.890962      0.1892013      32.662763      1.0054977     -67.559223      0              9957.4956      659.77189      614.95098    
      2090  -33.703516     -33.902604      0.19908808     32.680889      0.98651711    -67.57001       0              10477.828      574.60012      497.25244    
      2100  -33.704092     -33.915916      0.21182436     32.73597       0.97572814    -67.627614      0              11148.127      482.27309      363.8091     
      2110  -33.716457     -33.91137       0.1949136      32.838439      0.97470141    -67.724511      0              10258.129      282.11631      207.35991    
      2120  -33.728702     -33.908445      0.17974309     32.915309      1.0025308     -67.826284      0              9459.7186      276.52265      241.42644    
      2130  -33.731508     -33.906373      0.17486576     32.918152      1.0735374     -67.898062      0              9203.0289      617.25477      556.36482    
      2140  -33.738112     -33.876062      0.13795004     32.909043      1.1419528     -67.927058      0              7260.1875      847.03124      797.65163    
      2150  -33.744171     -33.855145      0.11097408     32.929793      1.1290446     -67.913982      0              5840.4667      684.2701       652.41317    
      2160  -33.745915     -33.866996      0.1210807      32.962977      1.0328857     -67.862858      0              6372.3692      222.95626      184.90444    
      2170  -33.749667     -33.886585      0.13691735     32.954581      0.93630152    -67.777467      0              7205.8382     -190.42355     -215.9955     
      2180  -33.750316     -33.912272      0.16195571     32.849566      0.905335      -67.667173      0              8523.5846     -115.87294     -151.3561     
      2190  -33.747099     -33.936974      0.18987431     32.693772      0.93011143    -67.560857      0              9992.9154      317.86248      246.67681    
      2200  -33.748991     -33.9375        0.18850862     32.603432      0.9649849     -67.505917      0              9921.0405      599.63546      529.91354    
      2210  -33.753221     -33.921895      0.16867438     32.631408      0.97544062    -67.528744      0              8877.1821      507.2134       455.14471    
      2220  -33.756329     -33.904649      0.14832042     32.74137       0.96805694    -67.614076      0              7805.9716      206.39983      166.62598    
      2230  -33.757706     -33.891769      0.13406268     32.843438      0.98606752    -67.721274      0              7055.5992      89.619264      53.997486    
      2240  -33.758237     -33.881192      0.12295472     32.877907      1.0528485     -67.811947      0              6470.997       346.88721      315.54897    
      2250  -33.759188     -33.876978      0.1177894      32.868376      1.1157551     -67.861109      0              6199.1511      661.07         642.82569    
      2260  -33.75686      -33.890769      0.13390881     32.863714      1.1065381     -67.86102       0              7047.5011      666.35379      645.02423    
      2270  -33.753659     -33.901139      0.14747993     32.878686      1.0379443     -67.81777       0              7761.737       335.46755      316.18327    
      2280  -33.748316     -33.897177      0.14886168     32.87187       0.97492737    -67.743974      0              7834.4576      29.131447      4.6500306    
      2290  -33.736083     -33.894762      0.1586783      32.813425      0.95147173    -67.659659      0              8351.0975      32.827958     -37.022909    
      2300  -33.724518     -33.890069      0.16555135     32.741063      0.96096653    -67.592098      0              8712.82        215.81785      120.34664    
      2310  -33.720899     -33.875323      0.15442456     32.697277      0.98837724    -67.560977      0              8127.2267      380.11463      327.33028    
      2320  -33.715422     -33.868429      0.15300658     32.675533      1.0194651     -67.563427      0              8052.5997      533.79507      518.1173     
      2330  -33.699623     -33.874403      0.17478005     32.674393      1.0366846     -67.58548       0              9198.5184      633.91401      601.74879    
      2340  -33.680321     -33.87436       0.19403909     32.717529      1.0237289     -67.615618      0              10212.104      501.66814      454.01422    
      2350  -33.657748     -33.876513      0.21876532     32.78342       0.9840216     -67.643955      0              11513.423      244.23693      177.74988    
      2360  -33.629917     -33.8897        0.25978308     32.822754      0.95238892    -67.664843      0              13672.152      165.72126      68.294139    
      2370  -33.607273     -33.890436      0.28316269     32.815276      0.9730973     -67.678809      0              14902.6        392.44015      320.49088    
      2380  -33.588714     -33.875882      0.28716773     32.760229      1.0524601     -67.688571      0              15113.381      905.14346      878.59816    
      2390  -33.56227      -33.86053       0.29825968     32.705492      1.1345482     -67.70057       0              15697.141      1381.4251      1323.4512    
      2400  -33.534559     -33.840121      0.30556263     32.738749      1.1430353     -67.721906      0              16081.489      1272.21        1151.9406    
      2410  -33.519652     -33.811738      0.2920859      32.851236      1.0674274     -67.730401      0              15372.22       567.89374      450.03881    
      2420  -33.512235     -33.795434      0.2831996      32.894498      0.99105329    -67.680986      0              14904.542      45.656052     -46.514352    
      2430  -33.503023     -33.799941      0.29691847     32.776707      0.97982799    -67.556476      0              15626.554      213.76684      115.16763    
      2440  -33.501588     -33.803624      0.30203626     32.584663      1.0076584     -67.395946      0              15895.899      706.55005      638.73324    
      2450  -33.504508     -33.813001      0.30849367     32.437235      1.0229656     -67.273202      0              16235.747      1083.2264      1050.7903    
      2460  -33.503098     -33.837443      0.33434486     32.399227      1.0091594     -67.24583       0              17596.272      1166.3773      1108.0821    
      2470  -33.502139     -33.863663      0.36152433     32.48129       0.98256119    -67.327515      0              19026.703      974.21103      855.94772    
      2480  -33.512205     -33.871671      0.35946511     32.642096      0.96993784    -67.483705      0              18918.328      640.17727      496.33371    
      2490  -33.535072     -33.853293      0.31822062     32.797495      1.0026699     -67.653458      0              16747.668      430.30521      314.83667    
      2500  -33.559004     -33.827783      0.26877848     32.863819      1.0917783     -67.78338       0              14145.571      634.7188       539.83494    
      2510  -33.582733     -33.808467      0.22573372     32.843343      1.1859729     -67.837783      0              11880.165      1032.7922      963.05186    
      2520  -33.605921     -33.816488      0.21056666     32.792403      1.1984182     -67.80731       0              11081.936      1165.862       1123.0307    
      2530  -33.626658     -33.853242      0.22658477     32.75958       1.0988508     -67.711673      0              11924.954      812.47449      769.01603    
      2540  -33.649321     -33.881105      0.23178457     32.755191      0.94763656    -67.583933      0              12198.615      91.842236      47.525688    
      2550  -33.67186      -33.886741      0.21488135     32.732917      0.83602852    -67.455687      0              11309.014     -495.19909     -539.19683    
      2560  -33.691248     -33.883381      0.19213259     32.654468      0.81840463    -67.356254      0              10111.767     -525.20821     -571.87812    
      2570  -33.709009     -33.876442      0.16743353     32.545188      0.8921946     -67.313825      0              8811.8774     -37.036008     -71.214296    
      2580  -33.722881     -33.87041       0.1475294      32.473155      1.0042077     -67.347773      0              7764.3406      583.08022      559.52967    
      2590  -33.72916      -33.873585      0.14442553     32.502327      1.0804544     -67.456367      0              7600.9869      898.36759      851.67128    
      2600  -33.732546     -33.87829       0.14574376     32.645768      1.080512      -67.60457       0              7670.3642      662.81241      589.4959     
      2610  -33.738342     -33.873155      0.13481333     32.822365      1.0399771     -67.735498      0              7095.1052      123.15347      55.660642    
      2620  -33.740772     -33.872313      0.13154095     32.904203      1.028601      -67.805117      0              6922.8831     -105.05101     -179.45024    
      2630  -33.742796     -33.875006      0.1322099      32.862264      1.06046       -67.797729      0              6958.0891      103.97567      31.162371    
      2640  -33.748029     -33.87985       0.13182184     32.762573      1.0881723     -67.730595      0              6937.6659      407.55918      366.6132     
      2650  -33.751525     -33.891279      0.13975392     32.677848      1.0684394     -67.637567      0              7355.1242      506.59282      489.8576     
      2660  -33.751922     -33.895317      0.14339406     32.647593      1.002595      -67.545504      0              7546.7015      274.44691      264.39018    
      2670  -33.749304     -33.885052      0.13574789     32.657123      0.92723854    -67.469414      0              7144.2903     -130.64682     -152.39968    
      2680  -33.743297     -33.87225       0.12895351     32.662001      0.88031646    -67.414567      0              6786.7081     -417.1633      -471.80125    
      2690  -33.738765     -33.862806      0.12404146     32.636997      0.88581531    -67.385618      0              6528.1915     -399.37656     -471.40031    
      2700  -33.73938      -33.856545      0.11716429     32.585794      0.94634735    -67.388686      0              6166.2522     -54.38238      -102.78118    
      2710  -33.74092      -33.857482      0.11656214     32.535275      1.0333677     -67.426125      0              6134.5613      456.92567      441.59943    
      2720  -33.735945     -33.871601      0.13565643     32.530181      1.0931965     -67.494979      0              7139.4769      828.11821      803.42319    
      2730  -33.723028     -33.894595      0.17156744     32.612417      1.0792924     -67.586304      0              9029.4414      735.81051      654.06077    
      2740  -33.713881     -33.900518      0.18663763     32.777782      1.0000691     -67.67837       0              9822.5721      90.772401     -10.816745    
      2750  -33.714598     -33.882973      0.16837507     32.918868      0.93265993    -67.734501      0              8861.4295     -577.38219     -630.11819    
      2760  -33.709188     -33.876047      0.16685882     32.89128       0.9611948     -67.728521      0              8781.631      -433.30578     -486.45398    
      2770  -33.702317     -33.862845      0.16052889     32.720267      1.0818996     -67.665012      0              8448.4924      388.60759      329.78021    
      2780  -33.701181     -33.841004      0.1398225      32.555171      1.1731359     -67.569311      0              7358.7337      1008.8771      983.05148    
      2790  -33.693186     -33.847337      0.15415101     32.496288      1.1289592     -67.472584      0              8112.8303      956.91949      915.08891    
      2800  -33.682315     -33.853959      0.17164422     32.551522      0.98064566    -67.386127      0              9033.482       213.17653      147.37396    
      2810  -33.677873     -33.833058      0.15518515     32.609257      0.86426374    -67.306579      0              8167.2562     -528.00345     -571.00227    
      2820  -33.661        -33.842613      0.18161255     32.536359      0.86182252    -67.240794      0              9558.1064     -348.53695     -460.19906    
      2830  -33.646048     -33.858387      0.21233861     32.411506      0.94672594    -67.216618      0              11175.191      381.29749      233.51528    
      2840  -33.645872     -33.852191      0.20631882     32.377436      1.041444      -67.271071      0              10858.375      876.40138      799.72484    
      2850  -33.639734     -33.857906      0.21817227     32.474089      1.0825488     -67.414544      0              11482.212      946.20678      892.06371    
      2860  -33.623528     -33.871996      0.24846758     32.684519      1.0569198     -67.613435      0              13076.627      572.13876      472.32786    
      2870  -33.61671      -33.853392      0.2366824      32.934665      1.0072352     -67.795292      0              12456.384     -126.66122     -205.16973    
      2880  -33.616556     -33.821878      0.20532179     33.049939      1.0056547     -67.877471      0              10805.903     -437.66619     -465.09041    
      2890  -33.599089     -33.834235      0.23514646     32.910218      1.071803      -67.816256      0              12375.548      146.53102      38.820877    
      2900  -33.585113     -33.853265      0.26815188     32.646532      1.1374458     -67.637242      0              14112.594      930.22116      775.62929    
      2910  -33.588265     -33.851291      0.26302647     32.430763      1.1250762     -67.407131      0              13842.848      1185.9823      1098.545     
      2920  -33.590069     -33.843964      0.25389528     32.313058      1.0361111     -67.193133      0              13362.282      924.99658      877.83916    
      2930  -33.580161     -33.841529      0.26136855     32.28464       0.92227079    -67.04844       0              13755.594      438.9397       335.16402    
      2940  -33.571055     -33.835037      0.26398185     32.339106      0.82873691    -67.00288       0              13893.129     -118.91099     -280.6044     
      2950  -33.581432     -33.811658      0.23022561     32.443673      0.79839412    -67.053725      0              12116.568     -544.82724     -632.85862    
      2960  -33.5938       -33.809621      0.215821       32.488869      0.87129574    -67.169785      0              11358.467     -288.8758      -304.81347    
      2970  -33.590796     -33.829485      0.23868895     32.44999       1.0454686     -67.324944      0              12561.987      681.95865      618.58308    
      2980  -33.594594     -33.811497      0.21690243     32.481319      1.2144596     -67.507275      0              11415.381      1319.3557      1249.8975    
      2990  -33.601909     -33.799153      0.19724449     32.661494      1.2304478     -67.691095      0              10380.802      1032.42        972.16289    
      3000  -33.609687     -33.818254      0.20856632     32.905863      1.0938125     -67.817929      0              10976.66       81.916596      23.042155    
      3010  -33.62462      -33.826149      0.20152868     33.023362      0.97394405    -67.823454      0              10606.275     -685.17638     -710.0183     
      3020  -33.631931     -33.840004      0.20807252     32.864564      0.99252828    -67.697096      0              10950.671     -314.76        -384.12004    
      3030  -33.637909     -33.867371      0.22946206     32.553429      1.0740813     -67.494882      0              12076.384      653.13893      506.24983    
      3040  -33.663256     -33.873861      0.21060486     32.338649      1.0940393     -67.306549      0              11083.946      1042.5372      933.69875    
      3050  -33.694013     -33.866878      0.1728647      32.299665      1.0216734     -67.188216      0              9097.7147      627.49681      588.01561    
      3060  -33.715822     -33.859755      0.14393339     32.366538      0.91797716    -67.14427       0              7575.0859     -89.29705      -111.98945    
      3070  -33.728733     -33.859371      0.13063868     32.441263      0.8528758     -67.15351       0              6875.397      -564.34539     -614.57081    
      3080  -33.741277     -33.861142      0.11986542     32.476221      0.85920236    -67.196566      0              6308.4099     -590.88046     -651.20341    
      3090  -33.756277     -33.862549      0.10627225     32.478828      0.92693734    -67.268315      0              5593.0139     -258.47495     -292.72987    
      3100  -33.769064     -33.869139      0.10007485     32.48731       1.0100346     -67.366483      0              5266.8499      142.66013      132.38798    
      3110  -33.775759     -33.883631      0.10787234     32.537507      1.0577343     -67.478872      0              5677.2252      311.46867      289.82588    
      3120  -33.78178      -33.887934      0.10615457     32.63719       1.0569346     -67.582058      0              5586.8204      119.14141      91.238061    
      3130  -33.786721     -33.881306      0.094584975    32.735353      1.0309651     -67.647623      0              4977.9229     -222.39306     -252.73882    
      3140  -33.785234     -33.883119      0.097885025    32.766989      1.0071334     -67.657242      0              5151.6016     -388.72777     -457.3975     
      3150  -33.786015     -33.882381      0.096365757    32.724739      1.0009589     -67.608079      0              5071.6438     -346.68307     -426.55857    
      3160  -33.792718     -33.870823      0.078104274    32.621182      1.020199      -67.512204      0              4110.5583     -124.68849     -165.52234    
      3170  -33.794718     -33.867392      0.072673542    32.478813      1.0512896     -67.397495      0              3824.7437      244.71864      213.66038    
      3180  -33.79193      -33.871778      0.07984828     32.375375      1.0505333     -67.297687      0              4202.3438      411.99638      363.67024    
      3190  -33.791523     -33.871432      0.079909024    32.376178      0.9919186     -67.239528      0              4205.5407      96.877554      56.201293    
      3200  -33.792227     -33.871223      0.078996478    32.451231      0.90567833    -67.228132      0              4157.5142     -464.60504     -484.48099    
      3210  -33.787727     -33.883645      0.095918819    32.513164      0.8529833     -67.249792      0              5048.1219     -761.43788     -790.38515    
      3220  -33.780107     -33.897883      0.1177761      32.517244      0.87757649    -67.292704      0              6198.4509     -542.00083     -587.50415    
      3230  -33.773698     -33.897115      0.1234174      32.492234      0.9702625     -67.359612      0              6495.3478      1.0748675     -39.93978     
      3240  -33.764395     -33.888494      0.1240994      32.503737      1.0691062     -67.461338      0              6531.2409      454.34958      402.70314    
      3250  -33.751214     -33.879818      0.12860392     32.607068      1.1029976     -67.589884      0              6768.3095      412.19131      329.78121    
      3260  -33.745628     -33.855738      0.11011092     32.779864      1.0631864     -67.698789      0              5795.0396     -186.21601     -239.17318    
      3270  -33.740978     -33.83712       0.096142117    32.868416      1.0178546     -67.723391      0              5059.8739     -624.7364      -651.85351    
      3280  -33.720673     -33.848458      0.12778464     32.757143      1.0237585     -67.629359      0              6725.1917     -319.42057     -423.7176     
      3290  -33.702722     -33.854015      0.15129295     32.534262      1.0530931     -67.44137       0              7962.413       254.72631      113.22296    
      3300  -33.694349     -33.852852      0.15850374     32.337268      1.0391375     -67.229257      0              8341.9107      535.6789       433.35356    
      3310  -33.685449     -33.857965      0.17251621     32.232598      0.97251461    -67.063078      0              9079.374       427.09659      362.67011    
      3320  -33.672205     -33.859107      0.18690143     32.222231      0.89863272    -66.97997       0              9836.4556      90.509772      35.28814     
      3330  -33.660871     -33.844069      0.18319801     32.276463      0.86405862    -66.984591      0              9641.5481     -232.2233      -272.10521    
      3340  -33.650732     -33.830036      0.17930417     32.351188      0.88218869    -67.063413      0              9436.6186     -318.39558     -350.79217    
      3350  -33.635719     -33.836256      0.2005363      32.419213      0.94143392    -67.196903      0              10554.047     -93.106332     -162.48857    
      3360  -33.624177     -33.839333      0.21515643     32.495073      1.0259112     -67.360317      0              11323.491      268.76553      184.36265    
      3370  -33.622246     -33.821506      0.19926035     32.58017       1.1162145     -67.517891      0              10486.894      565.86365      521.66354    
      3380  -33.612165     -33.821631      0.20946538     32.635633      1.1786883     -67.635952      0              11023.976      822.05504      743.0171     
      3390  -33.59516      -33.844074      0.24891367     32.683535      1.1624602     -67.690069      0              13100.104      771.62062      606.21352    
      3400  -33.596321     -33.842751      0.24643064     32.758599      1.0605368     -67.661887      0              12969.425      120.42455     -5.3518531    
      3410  -33.605485     -33.831706      0.22622115     32.75236       0.96326416    -67.54733       0              11905.817     -417.38867     -466.06358    
      3420  -33.596633     -33.848541      0.25190719     32.573066      0.94645129    -67.368058      0              13257.651     -113.39672     -223.73336    
      3430  -33.599373     -33.833762      0.2343887      32.359718      0.98593506    -67.179415      0              12335.668      379.60892      288.8497     
      3440  -33.608165     -33.813371      0.20520585     32.228697      1.0060877     -67.048156      0              10799.801      578.10478      539.21505    
      3450  -33.604337     -33.823478      0.21914117     32.209405      0.97661484    -67.009497      0              11533.205      468.06351      385.47023    
      3460  -33.600024     -33.828363      0.22833896     32.303021      0.92328613    -67.05467       0              12017.276     -2.738437      -131.724      
      3470  -33.609335     -33.805016      0.19568112     32.439959      0.89534766    -67.140322      0              10298.523     -533.56909     -612.36551    
      3480  -33.613884     -33.80744       0.19355587     32.487578      0.92088917    -67.215907      0              10186.673     -489.66041     -557.69452    
      3490  -33.610662     -33.838361      0.22769989     32.428657      0.99763406    -67.264653      0              11983.642      141.98909      29.399154    
      3500  -33.619078     -33.845517      0.22643857     32.374527      1.0832429     -67.303287      0              11917.26       709.55819      632.59937    
      3510  -33.629683     -33.843043      0.2133601      32.391195      1.1181133     -67.352351      0              11228.952      858.51536      823.74679    
      3520  -33.628328     -33.857367      0.22903916     32.472804      1.0847691     -67.41494       0              12054.127      618.54484      532.65308    
      3530  -33.626419     -33.861227      0.23480826     32.586339      1.0197096     -67.467276      0              12357.749      78.71612      -65.262716    
      3540  -33.637897     -33.832406      0.19450876     32.653814      0.98332691    -67.469547      0              10236.823     -389.59833     -496.11723    
      3550  -33.643079     -33.823234      0.18015482     32.568525      1.0088779     -67.400637      0              9481.3875     -184.52218     -300.3223     
      3560  -33.641866     -33.834959      0.19309303     32.380303      1.071175      -67.286437      0              10162.314      485.62543      318.66347    
      3570  -33.654232     -33.826194      0.17196212     32.258864      1.0957453     -67.180803      0              9050.213       766.6343       648.51041    
      3580  -33.666994     -33.824259      0.15726474     32.269721      1.0321282     -67.126108      0              8276.7032      424.0079       357.04833    
      3590  -33.672251     -33.839259      0.16700861     32.375356      0.91416748    -67.128782      0              8789.5144     -286.11271     -356.33374    
      3600  -33.676521     -33.850882      0.17436191     32.48901       0.82443033    -67.164323      0              9176.5116     -924.87577     -1006.228     
      3610  -33.684602     -33.852626      0.16802353     32.52454       0.82564688    -67.202813      0              8842.9287     -1013.3945     -1079.9235    
      3620  -33.688763     -33.865545      0.17678239     32.452795      0.91266191    -67.231002      0              9303.8994     -425.42976     -509.85844    
      3630  -33.692739     -33.877332      0.18459325     32.355216      1.0319734     -67.264522      0              9714.9783      369.27094      261.72349    
      3640  -33.70396      -33.867334      0.16337404     32.344135      1.1129873     -67.324457      0              8598.2302      733.60468      652.3138     
      3650  -33.714908     -33.85239       0.13748189     32.440806      1.1134906     -67.406686      0              7235.5493      488.0174       431.8378     
      3660  -33.720328     -33.847921      0.12759272     32.574074      1.0571935     -67.479188      0              6715.0913     -69.106189     -137.00903    
      3670  -33.727276     -33.842239      0.11496299     32.64481       1.0053848     -67.492435      0              6050.3996     -507.46031     -572.01627    
      3680  -33.735254     -33.841233      0.10597884     32.574804      0.99966933    -67.415707      0              5577.5719     -434.23235     -486.95441    
      3690  -33.738287     -33.859986      0.12169923     32.386466      1.0239708     -67.270422      0              6404.9219      88.966755      8.6893709    
      3700  -33.745393     -33.874238      0.12884486     32.21742       1.029891      -67.121549      0              6780.99        461.01081      376.2481     
      3710  -33.75618      -33.875521      0.11934055     32.172371      0.98496298    -67.032855      0              6280.7865      300.06526      232.75295    
      3720  -33.764046     -33.874919      0.11087269     32.254211      0.90118088    -67.030311      0              5835.1307     -275.6858      -346.11677    
      3730  -33.770903     -33.874287      0.10338407     32.399983      0.82585554    -67.100125      0              5441.0113     -919.99903     -996.55446    
      3740  -33.78214      -33.868397      0.086257016    32.523191      0.81356491    -67.205153      0              4539.6298     -1250.1318     -1294.0307    
      3750  -33.792455     -33.867882      0.075427269    32.547509      0.88944389    -67.304834      0              3969.6699     -954.71458     -967.29054    
      3760  -33.796264     -33.876787      0.080522595    32.479748      1.0250972     -67.381632      0              4237.8324     -142.72011     -168.38924    
      3770  -33.799206     -33.880206      0.081000686    32.425922      1.1367657     -67.442894      0              4262.9939      507.28512      466.31805    
      3780  -33.802772     -33.884787      0.082015232    32.4687        1.1369252     -67.490412      0              4316.3885      433.70842      386.64419    
      3790  -33.80683      -33.892471      0.085641475    32.577325      1.0325057     -67.502302      0              4507.2345     -256.71535     -303.13293    
      3800  -33.81038      -33.891806      0.081426064    32.634456      0.9278681     -67.45413       0              4285.3811     -910.81993     -956.23681    
      3810  -33.810525     -33.887699      0.07717386     32.550692      0.91008451    -67.348476      0              4061.5914     -895.18155     -958.42892    
      3820  -33.80971      -33.886991      0.077281144    32.365178      0.96555963    -67.217729      0              4067.2377     -291.8082      -372.14806    
      3830  -33.814408     -33.881077      0.066668757    32.207591      1.0243067     -67.112974      0              3508.7172      262.13118      210.91501    
      3840  -33.818081     -33.878952      0.060871444    32.168304      1.0274175     -67.074674      0              3203.6098      330.98988      304.85487    
      3850  -33.816125     -33.882843      0.066718693    32.257984      0.96808629    -67.108914      0              3511.3453     -118.53757     -154.42537    
      3860  -33.813164     -33.88126       0.068095565    32.416708      0.89052956    -67.188497      0              3583.8089     -793.45572     -838.10163    
      3870  -33.81096      -33.876265      0.065304952    32.541775      0.85455484    -67.272595      0              3436.9414     -1201.5521     -1242.8514    
      3880  -33.807397     -33.87725       0.069853241    32.560326      0.89364638    -67.331223      0              3676.3138     -1017.8956     -1057.4529    
      3890  -33.802061     -33.882641      0.080579077    32.484332      0.98883862    -67.355811      0              4240.8049     -369.36675     -405.82751    
      3900  -33.795725     -33.883252      0.087527406    32.394277      1.0819673     -67.359497      0              4606.4893      285.3478       262.43716    
      3910  -33.785861     -33.879541      0.093680361    32.37316       1.1115844     -67.364286      0              4930.3138      490.98356      471.08076    
      3920  -33.768408     -33.87987       0.11146173     32.44685       1.0507657     -67.377485      0              5866.1312      99.544436      45.284135    
      3930  -33.749164     -33.875237      0.12607259     32.566631      0.93811438    -67.379982      0              6635.088      -656.59364     -737.25303    
      3940  -33.735789     -33.860286      0.12449612     32.614898      0.86466881    -67.339852      0              6552.1199     -1150.7048     -1212.1986    
      3950  -33.717777     -33.862075      0.14429842     32.491718      0.89142749    -67.245221      0              7594.2973     -762.47905     -840.11123    
      3960  -33.699462     -33.864384      0.16492131     32.27066       0.99433123    -67.129375      0              8679.6615      193.9296       107.81875    
      3970  -33.689347     -33.848282      0.1589342      32.11635       1.0861975     -67.050829      0              8364.5652      861.29174      814.73809    
      3980  -33.677133     -33.835754      0.15862129     32.124607      1.0862901     -67.046652      0              8348.0968      775.2811       732.48028    
      3990  -33.660561     -33.833066      0.17250507     32.284877      0.98906165    -67.107005      0              9078.7878      11.167439     -68.755821    
      4000  -33.650896     -33.823022      0.1721257      32.486229      0.87144412    -67.180695      0              9058.822      -934.00918     -1007.4091    
      4010  -33.645979     -33.817376      0.17139727     32.558315      0.84462262    -67.220314      0              9020.4853     -1171.4106     -1217.6923    
      4020  -33.631031     -33.837688      0.2066575      32.43236       0.9485138     -67.218562      0              10876.2       -297.85333     -391.37651    
      4030  -33.620056     -33.84733       0.22727374     32.256845      1.1008348     -67.20501       0              11961.214      817.03414      706.93758    
      4040  -33.61273      -33.853673      0.24094295     32.196913      1.1719303     -67.222517      0              12680.613      1291.2032      1180.6011    
      4050  -33.607395     -33.856743      0.2493475      32.309828      1.1122433     -67.278815      0              13122.937      814.45247      709.78821    
      4060  -33.60723      -33.84332       0.23609013     32.497942      0.99305816    -67.33432       0              12425.213     -146.17369     -222.39038    
      4070  -33.599777     -33.836962      0.23718526     32.590875      0.91675992    -67.344597      0              12482.849     -688.19605     -799.16834    
      4080  -33.601238     -33.815563      0.21432505     32.551985      0.92594868    -67.293497      0              11279.736     -646.90114     -733.12481    
      4090  -33.604256     -33.807246      0.2029901      32.399312      0.98602675    -67.192585      0              10683.188     -108.74358     -167.49115    
      4100  -33.602734     -33.820114      0.21738082     32.224942      1.0337624     -67.078819      0              11440.559      483.09769      416.63227    
      4110  -33.600432     -33.835136      0.23470444     32.141797      1.0173406     -66.994274      0              12352.285      582.2345       499.03187    
      4120  -33.603014     -33.831014      0.22800071     32.181492      0.94732644    -66.959833      0              11999.474      111.44493      41.19328     
      4130  -33.606456     -33.82192       0.21546478     32.266167      0.88195248    -66.97004       0              11339.719     -416.93277     -476.90129    
      4140  -33.600391     -33.841643      0.24125232     32.300814      0.86956332    -67.012021      0              12696.894     -449.0775      -574.11522    
      4150  -33.600725     -33.857868      0.25714288     32.302205      0.91987487    -67.079948      0              13533.2       -108.9202      -258.25199    
      4160  -33.617815     -33.840645      0.2228302      32.325341      1.002322      -67.168308      0              11727.355      188.71003      125.03301    
      4170  -33.628467     -33.833687      0.20521983     32.361329      1.0699169     -67.264933      0              10800.537      411.08016      375.63606    
      4180  -33.623345     -33.856011      0.23266591     32.409324      1.0888553     -67.354191      0              12244.999      496.23966      370.31469    
      4190  -33.635852     -33.838514      0.2026624      32.506653      1.0628051     -67.407972      0              10665.941      68.227397     -20.333263    
      4200  -33.653269     -33.81807       0.16480114     32.544354      1.0338928     -67.396317      0              8673.337      -276.49984     -297.12468    
      4210  -33.648842     -33.854798      0.20595568     32.441281      1.0264683     -67.322547      0              10839.264      28.494478     -84.145189    
      4220  -33.659467     -33.866157      0.20669062     32.342347      1.0100971     -67.218601      0              10877.943      156.18574      55.782025    
      4230  -33.680275     -33.853354      0.17307914     32.305922      0.96947624    -67.128752      0              9109.0007     -69.766865     -90.839731    
      4240  -33.684644     -33.868804      0.18416048     32.290471      0.9190925     -67.078367      0              9692.2018     -241.73104     -306.63424    
      4250  -33.687755     -33.878758      0.1910034      32.309056      0.87873813    -67.066552      0              10052.339     -460.3233      -578.89614    
      4260  -33.705692     -33.851348      0.14565618     32.350349      0.8765387     -67.078236      0              7665.7546     -708.31181     -767.64402    
      4270  -33.717641     -33.837348      0.11970766     32.333409      0.92414197    -67.094899      0              6300.1071     -542.15411     -575.41034    
      4280  -33.721067     -33.845459      0.12439277     32.268181      1.0014245     -67.115065      0              6546.6804     -10.364987     -71.317375    
      4290  -33.727158     -33.850774      0.12361603     32.249489      1.0510397     -67.151303      0              6505.8014      302.73706      236.8323     
      4300  -33.733753     -33.858759      0.12500572     32.324471      1.0270465     -67.210276      0              6578.9398      65.280877      0.062356858  
      4310  -33.7401       -33.871625      0.13152525     32.453069      0.95075858    -67.275453      0              6922.0566     -530.37123     -595.97745    
      4320  -33.74713      -33.88289       0.1357603      32.534225      0.89305944    -67.310175      0              7144.9435     -952.34908     -1013.5625    
      4330  -33.755278     -33.885469      0.13019073     32.485313      0.92016099    -67.290943      0              6851.8218     -726.7104      -774.59903    
      4340  -33.759402     -33.885503      0.12610136     32.321857      1.0226979     -67.230058      0              6636.6023      63.694702      2.5711558    
      4350  -33.764236     -33.877578      0.11334149     32.186027      1.1056005     -67.169205      0              5965.0614      654.52695      592.31425    
      4360  -33.769448     -33.874368      0.10492059     32.193726      1.0796636     -67.147758      0              5521.8772      490.63584      434.98717    
      4370  -33.772236     -33.879701      0.10746437     32.329375      0.96217399    -67.17125       0              5655.7537     -311.16106     -373.83192    
      4380  -33.77814      -33.872115      0.093974492    32.478166      0.85978851    -67.210069      0              4945.7937     -1138.4205     -1180.4894    
      4390  -33.780208     -33.86976       0.089551498    32.5024        0.8511491     -67.223309      0              4713.0155     -1248.3037     -1294.6149    
      4400  -33.776402     -33.884499      0.10809679     32.387092      0.92873978    -67.200331      0              5689.0377     -598.74756     -686.86398    
      4410  -33.779119     -33.889861      0.11074175     32.25592       1.027006      -67.172787      0              5828.2398      135.48412      58.041556    
      4420  -33.786157     -33.884485      0.098328241    32.221536      1.0697337     -67.175755      0              5174.9276      376.13162      343.57423    
      4430  -33.78719      -33.885131      0.097941284    32.304106      1.0280123     -67.21725       0              5154.5624      33.781488      6.2836874    
      4440  -33.781383     -33.889108      0.10772534     32.446116      0.94040174    -67.275626      0              5669.4884     -626.56105     -690.06635    
      4450  -33.779697     -33.875658      0.095961639    32.555323      0.88341565    -67.314397      0              5050.3755     -1168.681      -1227.8294    
      4460  -33.779553     -33.864625      0.085072104    32.533569      0.90499732    -67.303191      0              4477.269      -1076.0142     -1115.9703    
      4470  -33.77206      -33.87677       0.10471025     32.374527      0.98781684    -67.239114      0              5510.8072     -309.38525     -370.14396    
      4480  -33.766599     -33.881352      0.11475296     32.204504      1.0700406     -67.155897      0              6039.3459      461.85695      417.67328    
      4490  -33.760853     -33.876075      0.11522176     32.137983      1.0845511     -67.098609      0              6064.0184      653.45282      638.73641    
      4500  -33.744127     -33.877832      0.13370518     32.199499      1.0117623     -67.089093      0              7036.7843      215.14208      168.95991    
      4510  -33.720266     -33.877917      0.15765052     32.341427      0.89654995    -67.115894      0              8297.0064     -567.1707      -668.80341    
      4520  -33.700653     -33.86629       0.1656374      32.461631      0.81763748    -67.145559      0              8717.3487     -1184.5055     -1292.1099    
      4530  -33.686566     -33.853318      0.16675195     32.453114      0.84075275    -67.147185      0              8776.0064     -1071.0866     -1140.6025    
      4540  -33.665948     -33.8538        0.18785269     32.295159      0.97156664    -67.120526      0              9886.5193     -78.029752     -151.97115    
      4550  -33.642798     -33.846934      0.20413636     32.131029      1.1253978     -67.103361      0              10743.515      989.83934      901.68586    
      4560  -33.621358     -33.842158      0.22080006     32.130812      1.1664947     -67.139465      0              11620.51       1199.4888      1099.8885    
      4570  -33.5964       -33.857403      0.26100288     32.326489      1.0507483     -67.23464       0              13736.349      413.53888      275.06992    
      4580  -33.582386     -33.854216      0.27182993     32.5945        0.88709876    -67.335815      0              14306.167     -828.79802     -934.54876    
      4590  -33.574275     -33.837939      0.26366437     32.69543       0.83005764    -67.363427      0              13876.421     -1335.4518     -1397.1006    
      4600  -33.557811     -33.831079      0.27326776     32.525239      0.93385717    -67.290174      0              14381.838     -493.93489     -594.80286    
[...]
     38890  -33.469841     -33.617537      0.14769635     32.028808      1.0781135     -66.724459      0              7773.1272      371.1999       336.31753    
     38900  -33.466681     -33.641148      0.17446677     32.036187      1.1324769     -66.809812      0              9182.0306      702.07778      617.35078    
     38910  -33.471845     -33.642394      0.17054914     32.143072      1.091842      -66.877308      0              8975.849       281.35954      212.4289     
     38920  -33.478818     -33.63964       0.16082221     32.25989       0.99014881    -66.889679      0              8463.9293     -455.9302      -495.21457    
     38930  -33.473037     -33.657676      0.18463885     32.254072      0.91419597    -66.825944      0              9717.3778     -751.90837     -851.53104    
     38940  -33.471976     -33.657281      0.18530453     32.120712      0.92739179    -66.705384      0              9752.4123     -468.51415     -586.78845    
     38950  -33.479711     -33.642604      0.16289374     31.921863      1.011591      -66.576059      0              8572.9523      212.82483      139.59758    
     38960  -33.480687     -33.650863      0.17017651     31.756159      1.0778103     -66.484833      0              8956.2378      866.44539      791.11531    
     38970  -33.475808     -33.674659      0.19885118     31.744524      1.0497412     -66.468924      0              10465.36       893.06936      775.4393     
     38980  -33.471589     -33.691359      0.21977024     31.915119      0.93273336    -66.539211      0              11566.312      134.52721     -19.350545    
     38990  -33.476618     -33.683057      0.20643926     32.16443       0.81768307    -66.66517       0              10864.714     -873.27537     -998.82867    
     39000  -33.478612     -33.680708      0.20209521     32.314018      0.79908896    -66.793815      0              10636.09      -1181.6309     -1305.7435    
     39010  -33.479412     -33.669346      0.18993378     32.309918      0.90856494    -66.887829      0              9996.0453     -602.68414     -730.0663     
     39020  -33.489834     -33.622985      0.13315038     32.242788      1.0795296     -66.945302      0              7007.5855      181.1951       123.91447    
     39030  -33.493621     -33.599894      0.10627322     32.200609      1.1820883     -66.982592      0              5593.0647      629.9649       596.55081    
     39040  -33.485249     -33.62693       0.14168076     32.239282      1.1313277     -66.99754       0              7456.5323      414.5467       324.47525    
     39050  -33.482485     -33.646647      0.1641619      32.337895      0.97872935    -66.963272      0              8639.6946     -473.18874     -569.59656    
     39060  -33.478262     -33.656138      0.1778758      32.336541      0.86501317    -66.857692      0              9361.4445     -1072.4327     -1189.9443    
     39070  -33.46414      -33.673937      0.20979661     32.157028      0.8566028     -66.687568      0              11041.409     -777.34818     -983.64465    
     39080  -33.464807     -33.664371      0.199564       31.919115      0.92277238    -66.506258      0              10502.875     -117.18644     -304.19707    
     39090  -33.475084     -33.647921      0.17283614     31.739677      0.99658943    -66.384187      0              9096.2118      444.60666      340.09213    
     39100  -33.479079     -33.652827      0.17374787     31.684465      1.0266099     -66.363902      0              9144.1954      684.11642      613.72661    
     39110  -33.475061     -33.670141      0.19508007     31.777434      0.99778841    -66.445363      0              10266.89       437.00774      344.5564     
     39120  -33.473402     -33.67128       0.19787753     31.978453      0.94007169    -66.589804      0              10414.118     -217.46804     -313.49021    
     39130  -33.476744     -33.655084      0.17833966     32.169532      0.90370408    -66.728319      0              9385.8571     -808.05219     -874.25899    
     39140  -33.476554     -33.643086      0.16653189     32.226554      0.92421055    -66.793851      0              8764.4249     -837.01123     -900.78918    
     39150  -33.472179     -33.635567      0.16338791     32.129519      1.0084047     -66.77349       0              8598.96       -251.88544     -340.99826    
     39160  -33.469576     -33.624311      0.15473474     31.973239      1.1018254     -66.699375      0              8143.5515      412.84732      314.20878    
     39170  -33.468607     -33.619625      0.15101828     31.873561      1.1171333     -66.610319      0              7947.9573      591.97518      497.26745    
     39180  -33.46472      -33.628371      0.16365136     31.87435       1.0300093     -66.53273       0              8612.8253      205.69047      95.500043    
     39190  -33.457899     -33.634739      0.17683934     31.944808      0.89617973    -66.475726      0              9306.8966     -512.36935     -654.43966    
     39200  -33.459926     -33.611347      0.15142085     32.020013      0.80739735    -66.438758      0              7969.1441     -1175.2214     -1282.8345    
     39210  -33.460422     -33.594757      0.13433448     32.004394      0.81823077    -66.417381      0              7069.9038     -1162.7502     -1250.5207    
     39220  -33.459409     -33.589338      0.12992893     31.910246      0.91246342    -66.412048      0              6838.0439     -554.50102     -627.55186    
     39230  -33.457864     -33.596597      0.13873344     31.830549      1.013976      -66.441122      0              7301.4171      81.683019      22.61581     
     39240  -33.450396     -33.626046      0.1756501      31.841086      1.0557908     -66.522923      0              9244.3083      389.11744      310.55278    
     39250  -33.443067     -33.652298      0.20923142     31.966147      1.0207555     -66.639201      0              11011.663      130.50769      45.115697    
     39260  -33.439546     -33.656691      0.21714499     32.130428      0.9588269     -66.745946      0              11428.147     -439.80222     -503.40901    
     39270  -33.426035     -33.671528      0.24549327     32.198532      0.93718858    -66.807249      0              12920.092     -576.67685     -697.91862    
     39280  -33.411364     -33.682868      0.27150379     32.157299      0.96095274    -66.801119      0              14289.002     -279.49834     -464.18082    
     39290  -33.418902     -33.652404      0.23350212     32.077008      1.0100412     -66.739453      0              12289.008      18.998468     -82.251562    
     39300  -33.41797      -33.643269      0.22529869     31.955353      1.0494569     -66.648079      0              11857.269      377.79135      280.67186    
     39310  -33.406753     -33.651542      0.24478928     31.859028      1.0402336     -66.550804      0              12883.042      499.63274      330.77197    
     39320  -33.407475     -33.633063      0.22558801     31.864402      0.96985166    -66.467317      0              11872.496      33.966397     -123.87663    
     39330  -33.416049     -33.601404      0.18535473     31.918391      0.88257589    -66.402371      0              9755.054      -628.26494     -727.50326    
     39340  -33.416709     -33.587585      0.1708758      31.924354      0.84758558    -66.359524      0              8993.041      -863.33045     -961.26976    
     39350  -33.418828     -33.572205      0.15337715     31.884684      0.8796905     -66.33658       0              8072.1028     -730.49156     -813.14118    
     39360  -33.417311     -33.573327      0.15601627     31.832043      0.93839346    -66.343763      0              8210.997      -377.61951     -468.55335    
     39370  -33.415278     -33.586113      0.17083442     31.827467      0.99163756    -66.405217      0              8990.863      -62.295888     -159.55808    
     39380  -33.412068     -33.603059      0.19099117     31.89872       1.0090869     -66.510866      0              10051.695     -74.985057     -182.33072    
     39390  -33.41076      -33.609018      0.19825753     32.007209      1.0056497     -66.621876      0              10434.117     -280.74437     -380.09874    
     39400  -33.402375     -33.619036      0.2166609      32.063381      1.0131475     -66.695564      0              11402.67      -261.87313     -404.52698    
     39410  -33.397606     -33.607339      0.20973273     32.055345      1.0425909     -66.705275      0              11038.046     -138.15656     -289.92856    
     39420  -33.40219      -33.582767      0.18057691     31.989883      1.0762512     -66.648901      0              9503.6017      53.213774     -44.11065     
     39430  -33.397229     -33.591877      0.19464779     31.87048       1.0739826     -66.53634       0              10244.139      338.73475      229.93041    
     39440  -33.390551     -33.608886      0.21833498     31.778621      1.0186542     -66.406161      0              11490.775      330.76414      209.73619    
     39450  -33.384151     -33.623991      0.23984037     31.756187      0.92390611    -66.304084      0              12622.585     -33.764622     -159.24867    
     39460  -33.375203     -33.638868      0.26366529     31.776131      0.82800076    -66.243         0              13876.469     -473.03336     -616.57249    
     39470  -33.371327     -33.639324      0.2679964      31.79464       0.77820647    -66.212171      0              14104.412     -718.17975     -845.84748    
     39480  -33.363837     -33.646413      0.28257592     31.764346      0.8015173     -66.212276      0              14871.719     -504.42735     -654.33269    
     39490  -33.354052     -33.651884      0.29783168     31.721108      0.89072268    -66.263715      0              15674.616      42.532068     -156.91401    
     39500  -33.35551      -33.622685      0.26717408     31.757486      0.99143442    -66.371605      0              14061.134      364.71394      179.68129    
     39510  -33.361768     -33.578868      0.21709983     31.902716      1.0380781     -66.519662      0              11425.771      185.30225      33.479433    
     39520  -33.36378      -33.552155      0.18837518     32.109137      1.0166871     -66.677979      0              9914.0177     -352.33086     -505.47441    
     39530  -33.367068     -33.538386      0.17131837     32.289125      0.96990666    -66.797417      0              9016.3328     -956.4903      -1098.8441    
     39540  -33.373624     -33.534768      0.16114373     32.322575      0.96943198    -66.826775      0              8480.8507     -1090.6951     -1198.7335    
     39550  -33.364224     -33.579368      0.21514389     32.137084      1.0401919     -66.756643      0              11322.831     -302.14288     -495.5512     
     39560  -33.356972     -33.62859       0.27161821     31.882315      1.1011221     -66.612027      0              14295.024      574.80958      310.42968    
     39570  -33.369452     -33.647657      0.27820426     31.738147      1.0600251     -66.445829      0              14641.642      661.40626      450.3608     
     39580  -33.387797     -33.651667      0.26386982     31.721483      0.93226858    -66.305418      0              13887.233      71.733749     -67.626753    
     39590  -33.398517     -33.652329      0.25381139     31.751593      0.80234338    -66.206266      0              13357.867     -649.63829     -790.36313    
     39600  -33.409816     -33.636896      0.22707998     31.769469      0.74247529    -66.14884       0              11951.017     -1097.5604     -1240.9316    
     39610  -33.428275     -33.60878       0.18050414     31.74835       0.76849067    -66.12562       0              9499.7719     -1108.6609     -1197.8773    
     39620  -33.442813     -33.598803      0.15598973     31.676551      0.85410279    -66.129457      0              8209.6004     -657.50217     -712.51329    
     39630  -33.449958     -33.609657      0.15969933     31.598145      0.96407424    -66.171876      0              8404.8333      32.197862     -37.97512     
     39640  -33.455169     -33.620083      0.16491428     31.595369      1.0499485     -66.265401      0              8679.2912      476.45385      378.42633    
     39650  -33.463524     -33.61585       0.15232673     31.71198       1.0696422     -66.397472      0              8016.82        306.76783      208.48996    
     39660  -33.468841     -33.619811      0.15096931     31.890006      1.0240196     -66.533836      0              7945.3803     -251.1697      -367.7752     
     39670  -33.466703     -33.647819      0.18111583     32.035484      0.94819227    -66.631496      0              9531.9645     -790.93155     -980.14042    
     39680  -33.476693     -33.651097      0.1744043      32.107727      0.9000461     -66.65887       0              9178.7429     -1182.3135     -1354.958     
     39690  -33.493138     -33.633996      0.14085801     32.056069      0.92126499    -66.61133       0              7413.2313     -1079.0979     -1185.0875    
     39700  -33.499109     -33.629762      0.13065257     31.888817      0.99117815    -66.509757      0              6876.1281     -437.80957     -544.33596    
     39710  -33.505309     -33.619788      0.11447895     31.738561      1.0411205     -66.399469      0              6024.9248      67.571382     -26.951016    
     39720  -33.512504     -33.610141      0.097636632    31.707589      1.0113931     -66.329123      0              5138.5289     -27.660144     -94.782281    
     39730  -33.515663     -33.615266      0.099603709    31.794007      0.90611805    -66.315391      0              5242.0544     -646.88762     -709.54851    
     39740  -33.51782      -33.628419      0.11059904     31.92078       0.78660215    -66.335801      0              5820.7287     -1413.4345     -1473.5214    
     39750  -33.51869      -33.651845      0.13315579     31.978589      0.72939563    -66.35983       0              7007.8702     -1731.3869     -1795.559     
     39760  -33.515478     -33.687201      0.1717229      31.912771      0.77849782    -66.37847       0              9037.6228     -1233.4013     -1327.9777    
     39770  -33.516462     -33.7028        0.18633767     31.789003      0.91082928    -66.402632      0              9806.7855     -304.87927     -396.14545    
     39780  -33.520919     -33.69251       0.17159135     31.714514      1.040623      -66.447647      0              9030.6994      381.60752      317.36821    
     39790  -33.518086     -33.685325      0.16723948     31.752259      1.0820153     -66.519599      0              8801.6648      471.81467      381.53403    
     39800  -33.512483     -33.679431      0.16694733     31.906578      1.0171817     -66.603191      0              8786.2892     -127.36572     -257.7019     
     39810  -33.518089     -33.648247      0.13015851     32.092195      0.92115573    -66.661598      0              6850.1261     -1070.4601     -1155.0875    
     39820  -33.52073      -33.621506      0.1007758      32.142842      0.89173896    -66.656087      0              5303.7404     -1439.8253     -1500.4709    
     39830  -33.516121     -33.608621      0.092499369    32.019125      0.93977221    -66.567517      0              4868.1593     -1045.0645     -1127.3811    
     39840  -33.509806     -33.607611      0.097805268    31.82523       0.99149751    -66.424338      0              5147.404      -449.68704     -557.45809    
     39850  -33.506763     -33.610322      0.10355973     31.683651      0.99072419    -66.284697      0              5450.2561     -160.56088     -257.78188    
     39860  -33.504826     -33.608783      0.10395756     31.643784      0.93042274    -66.18299       0              5471.1938     -371.20934     -437.01775    
     39870  -33.500283     -33.600809      0.10052545     31.673327      0.853105      -66.127241      0              5290.5647     -834.85703     -875.2176     
     39880  -33.48391      -33.612886      0.12897594     31.700091      0.80396314    -66.11694       0              6787.8888     -1043.2537     -1127.6998    
     39890  -33.450757     -33.651673      0.20091592     31.706174      0.79288462    -66.150731      0              10574.026     -894.51677     -1092.0428    
     39900  -33.430055     -33.65324       0.22318516     31.74738       0.82653352    -66.227153      0              11746.036     -756.03966     -920.72883    
     39910  -33.42231      -33.628168      0.20585862     31.794473      0.9056705     -66.328312      0              10834.156     -537.27216     -579.38661    
     39920  -33.389346     -33.638918      0.24957181     31.781867      1.0066688     -66.427453      0              13134.742      49.67494      -51.925838    
     39930  -33.348325     -33.640749      0.29242445     31.785597      1.0847117     -66.511058      0              15390.038      484.38664      283.33448    
     39940  -33.328869     -33.599419      0.2705503      31.866773      1.0954422     -66.561634      0              14238.821      241.70885      71.717684    
     39950  -33.327411     -33.543525      0.2161145      31.952898      1.0598149     -66.556239      0              11373.913     -311.63556     -370.71071    
     39960  -33.313276     -33.539497      0.22622091     31.921333      1.0171953     -66.478026      0              11905.805     -445.7223      -520.39761    
     39970  -33.282718     -33.579897      0.29717885     31.786848      0.97096417    -66.337709      0              15640.258     -186.94302     -392.27366    
     39980  -33.274129     -33.577125      0.30299598     31.685958      0.91825954    -66.181343      0              15946.408     -201.62095     -387.01302    
     39990  -33.287889     -33.530407      0.24251791     31.660624      0.8630359     -66.054066      0              12763.501     -572.24543     -612.16813    
     40000  -33.285928     -33.515824      0.2298957      31.645414      0.81074988    -65.971988      0              12099.206     -822.01843     -858.46216    
     40010  -33.259532     -33.545873      0.28634159     31.623783      0.77207447    -65.941731      0              15069.903     -832.04913     -1048.154     
     40020  -33.248441     -33.543149      0.29470755     31.656686      0.77193804    -65.971773      0              15510.196     -936.89798     -1227.7496    
     40030  -33.268445     -33.490795      0.22234993     31.719947      0.83462798    -66.04537       0              11702.079     -1051.3962     -1208.9747    
     40033  -33.274204     -33.480221      0.20601702     31.724083      0.86713946    -66.071443      0              10842.492     -970.82144     -1093.516     
Loop time of 0.506235 on 4 procs for 40000 steps with 13 atoms

Performance: 6826864.915 fs/day, 0.000 hours/fs, 79014.640 timesteps/s, 1.027 Matom-step/s
99.5% CPU use with 4 MPI tasks x 1 OpenMP threads

MPI task timing breakdown:
Section |  min time  |  avg time  |  max time  |%varavg| %total
---------------------------------------------------------------
Pair    | 0.015393   | 0.091741   | 0.17888    |  20.4 | 18.12
Neigh   | 0.0001348  | 0.00016869 | 0.00018879 |   0.0 |  0.03
Comm    | 0.1265     | 0.2131     | 0.29022    |  13.7 | 42.09
Output  | 0.07791    | 0.080719   | 0.086298   |   1.2 | 15.95
Modify  | 0.054215   | 0.058849   | 0.064783   |   1.6 | 11.62
Other   |            | 0.06166    |            |       | 12.18

Nlocal:           3.25 ave           4 max           2 min
Histogram: 1 0 0 0 0 1 0 0 0 2
Nghost:           9.75 ave          11 max           9 min
Histogram: 2 0 0 0 0 1 0 0 0 1
Neighs:           19.5 ave          37 max           3 min
Histogram: 1 0 1 0 0 0 1 0 0 1

Total # of neighbors = 78
Ave neighs/atom = 6
Neighbor list builds = 163
Dangerous builds = 0


Total wall time: 0:00:00
