#LAMMPS data file created by matlab.
200 atoms

1 atom types

-0.005000 0.005000 xlo xhi
-0.005000 0.005000 ylo yhi
-0.001000 0.020000 zlo zhi

Atoms

1 1 0.001206 1560.000000 -0.000938 0.000556 0.000883
2 1 0.000953 1560.000000 -0.002626 -0.000145 0.002778
3 1 0.001035 1560.000000 -0.000434 0.000172 0.008458
4 1 0.001225 1560.000000 -0.003126 -0.000604 0.004986
5 1 0.001119 1560.000000 0.000772 0.002972 0.002568
6 1 0.001243 1560.000000 -0.000363 0.001184 0.004927
7 1 0.001173 1560.000000 0.000218 0.000243 0.005475
8 1 0.000937 1560.000000 0.000033 0.000029 0.003141
9 1 0.001055 1560.000000 -0.001660 0.001975 0.008611
10 1 0.000938 1560.000000 -0.001818 0.002352 0.002534
11 1 0.000990 1560.000000 0.001592 0.000435 0.004416
12 1 0.000927 1560.000000 -0.001659 -0.000004 0.005901
13 1 0.001272 1560.000000 0.002972 0.000553 0.007291
14 1 0.001226 1560.000000 0.002090 0.000983 0.001406
15 1 0.000957 1560.000000 0.002241 -0.001608 0.001304
16 1 0.001020 1560.000000 -0.001944 0.001290 0.002030
17 1 0.001289 1560.000000 -0.002256 -0.001173 0.003474
18 1 0.000998 1560.000000 0.000771 0.002127 0.000906
19 1 0.000927 1560.000000 0.000186 0.000567 0.001207
20 1 0.001095 1560.000000 -0.000937 -0.003179 0.008173
21 1 0.001006 1560.000000 -0.001736 0.000751 0.004618
22 1 0.001037 1560.000000 0.000784 0.001844 0.002380
23 1 0.001297 1560.000000 0.000234 -0.001597 0.008560
24 1 0.001017 1560.000000 0.002454 -0.000505 0.001171
25 1 0.001110 1560.000000 -0.000803 -0.000415 0.003714
26 1 0.001192 1560.000000 0.002283 0.000648 0.003048
27 1 0.000992 1560.000000 -0.000065 -0.000545 0.007062
28 1 0.001116 1560.000000 0.002174 -0.001463 0.005830
29 1 0.001258 1560.000000 0.001602 0.001853 0.007246
30 1 0.001055 1560.000000 -0.001535 -0.002770 0.007196
31 1 0.000958 1560.000000 -0.000438 -0.000260 0.004709
32 1 0.001188 1560.000000 0.000339 -0.000355 0.009171
33 1 0.001166 1560.000000 0.002513 -0.001215 0.004434
34 1 0.000907 1560.000000 0.001905 -0.000373 0.004921
35 1 0.001245 1560.000000 -0.000091 -0.002620 0.004150
36 1 0.001302 1560.000000 0.003292 0.000184 0.005377
37 1 0.001305 1560.000000 0.002099 0.001261 0.008939
38 1 0.000988 1560.000000 0.003274 0.000136 0.003667
39 1 0.000892 1560.000000 0.001798 -0.002104 0.008610
40 1 0.001247 1560.000000 -0.003058 -0.000575 0.000948
41 1 0.000900 1560.000000 -0.000258 -0.000469 0.001478
42 1 0.000945 1560.000000 -0.001434 -0.001711 0.004610
43 1 0.000977 1560.000000 -0.001410 0.002808 0.004963
44 1 0.000930 1560.000000 -0.002110 -0.001362 0.006749
45 1 0.000931 1560.000000 0.001256 -0.000876 0.000844
46 1 0.000901 1560.000000 0.000899 -0.001189 0.005316
47 1 0.000940 1560.000000 -0.002189 -0.000047 0.007240
48 1 0.001217 1560.000000 -0.000108 -0.001333 0.002257
49 1 0.001088 1560.000000 0.001364 -0.000594 0.002789
50 1 0.001143 1560.000000 -0.000311 -0.001425 0.006092
51 1 0.001054 1560.000000 0.002262 0.002312 0.004315
52 1 0.001016 1560.000000 -0.000724 0.000741 0.003295
53 1 0.001051 1560.000000 0.000527 -0.001987 0.003307
54 1 0.000905 1560.000000 0.000827 0.001457 0.005868
55 1 0.001195 1560.000000 -0.001176 -0.000645 0.000798
56 1 0.001253 1560.000000 0.002583 -0.001847 0.003310
57 1 0.000982 1560.000000 0.001551 -0.002803 0.005076
58 1 0.000945 1560.000000 -0.000481 0.000354 0.007220
59 1 0.001040 1560.000000 -0.002736 0.001076 0.008769
60 1 0.000917 1560.000000 0.000826 -0.001887 0.006449
61 1 0.000914 1560.000000 -0.001171 -0.001592 0.007266
62 1 0.000959 1560.000000 0.000834 -0.002671 0.007105
63 1 0.000990 1560.000000 -0.000251 -0.001327 0.004339
64 1 0.001220 1560.000000 0.001384 0.002896 0.005874
65 1 0.000949 1560.000000 -0.001340 -0.000608 0.007496
66 1 0.001306 1560.000000 0.002187 0.002068 0.002629
67 1 0.001206 1560.000000 0.000148 0.001506 0.008517
68 1 0.001123 1560.000000 0.001288 -0.000303 0.006613
69 1 0.001151 1560.000000 -0.000876 0.001549 0.001740
70 1 0.001315 1560.000000 -0.001902 -0.002590 0.001344
71 1 0.000927 1560.000000 0.002285 -0.000866 0.006900
72 1 0.001279 1560.000000 -0.000165 0.002689 0.007449
73 1 0.000910 1560.000000 0.001009 0.001054 0.005049
74 1 0.001148 1560.000000 -0.002229 -0.001285 0.008736
75 1 0.001067 1560.000000 -0.000261 -0.002945 0.002157
76 1 0.000993 1560.000000 -0.001641 0.002272 0.007601
77 1 0.001228 1560.000000 0.001939 -0.000214 0.008903
78 1 0.001076 1560.000000 0.000767 0.001172 0.003556
79 1 0.001105 1560.000000 -0.000561 0.002493 0.004214
80 1 0.001195 1560.000000 0.002694 -0.000817 0.007949
81 1 0.001239 1560.000000 -0.000968 -0.003145 0.006096
82 1 0.001083 1560.000000 -0.000808 0.001813 0.006396
83 1 0.000923 1560.000000 0.000632 -0.001437 0.001310
84 1 0.000981 1560.000000 -0.001842 0.002774 0.006508
85 1 0.000998 1560.000000 -0.002775 0.001616 0.001453
86 1 0.000979 1560.000000 -0.002520 0.001715 0.007741
87 1 0.001002 1560.000000 -0.001465 -0.001931 0.006048
88 1 0.000958 1560.000000 0.003264 0.000707 0.001189
89 1 0.001052 1560.000000 -0.001314 -0.000701 0.002721
90 1 0.001096 1560.000000 0.001154 0.002129 0.004403
91 1 0.001104 1560.000000 0.002118 0.001977 0.000794
92 1 0.001263 1560.000000 -0.001499 -0.002764 0.003441
93 1 0.001086 1560.000000 -0.001096 0.002514 0.001154
94 1 0.000895 1560.000000 0.001130 0.000029 0.001045
95 1 0.000964 1560.000000 0.000905 -0.003200 0.000542
96 1 0.000898 1560.000000 -0.000868 0.003148 0.008306
97 1 0.000907 1560.000000 -0.001406 0.001144 0.007862
98 1 0.001176 1560.000000 0.001246 -0.001074 0.004327
99 1 0.001148 1560.000000 0.001512 -0.002739 0.003346
100 1 0.000922 1560.000000 0.001470 -0.000036 0.007695
101 1 0.001031 1560.000000 -0.002751 0.000928 0.004124
102 1 0.001030 1560.000000 -0.000177 -0.002370 0.005374
103 1 0.000915 1560.000000 0.000824 0.000521 0.007070
104 1 0.001085 1560.000000 -0.002281 -0.000023 0.009123
105 1 0.001004 1560.000000 -0.000167 0.002610 0.008905
106 1 0.001060 1560.000000 -0.000389 -0.002220 0.007688
107 1 0.000920 1560.000000 -0.000483 0.003231 0.006505
108 1 0.001122 1560.000000 0.001781 -0.001547 0.002237
109 1 0.001172 1560.000000 -0.002650 0.000830 0.005429
110 1 0.001137 1560.000000 -0.000030 -0.003246 0.001024
111 1 0.001315 1560.000000 0.001470 -0.001735 0.007580
112 1 0.001245 1560.000000 0.000481 -0.003067 0.006025
113 1 0.000904 1560.000000 0.000632 -0.000184 0.002010
114 1 0.000883 1560.000000 -0.001828 0.002191 0.003819
115 1 0.000974 1560.000000 0.002167 0.001616 0.006226
116 1 0.001150 1560.000000 0.000871 -0.002731 0.002136
117 1 0.001312 1560.000000 -0.000326 -0.001971 0.001000
118 1 0.000914 1560.000000 0.001020 0.000810 0.002086
119 1 0.001136 1560.000000 -0.000101 -0.003277 0.007246
120 1 0.000991 1560.000000 -0.001944 0.000576 0.003215
121 1 0.001216 1560.000000 -0.000913 -0.001165 0.008857
122 1 0.001045 1560.000000 -0.003110 0.001062 0.002973
123 1 0.000918 1560.000000 0.000348 0.000365 0.004046
124 1 0.001279 1560.000000 -0.000884 0.003087 0.002268
125 1 0.001065 1560.000000 -0.002238 0.001309 0.006452
126 1 0.001012 1560.000000 -0.002059 -0.001354 0.001935
127 1 0.001142 1560.000000 -0.003011 0.000567 0.001739
128 1 0.000921 1560.000000 0.001764 0.002804 0.008177
129 1 0.001151 1560.000000 -0.003105 -0.000384 0.006602
130 1 0.000967 1560.000000 0.000932 0.000588 0.008823
131 1 0.000908 1560.000000 -0.001873 -0.001947 0.007825
132 1 0.000923 1560.000000 -0.002993 0.000883 0.007425
133 1 0.001171 1560.000000 0.003310 -0.000405 0.006558
134 1 0.000977 1560.000000 -0.000098 -0.000180 0.000492
135 1 0.000938 1560.000000 -0.000706 -0.000129 0.006085
136 1 0.001008 1560.000000 -0.000256 0.002333 0.000550
137 1 0.001073 1560.000000 0.000534 -0.000055 0.008080
138 1 0.000890 1560.000000 0.000351 0.001695 0.007195
139 1 0.000973 1560.000000 0.002593 0.001907 0.005394
140 1 0.001176 1560.000000 -0.001862 -0.000534 0.004494
141 1 0.001306 1560.000000 -0.000951 0.001053 0.009299
142 1 0.001103 1560.000000 -0.001937 -0.002711 0.008485
143 1 0.001262 1560.000000 -0.002947 -0.001470 0.007682
144 1 0.000914 1560.000000 0.002047 0.000811 0.005504
145 1 0.000954 1560.000000 0.001935 -0.002349 0.006632
146 1 0.001003 1560.000000 0.000766 -0.002635 0.008483
147 1 0.001137 1560.000000 0.000102 0.003195 0.004922
148 1 0.001006 1560.000000 -0.001982 0.001014 0.000685
149 1 0.001255 1560.000000 -0.000718 0.001939 0.003056
150 1 0.001057 1560.000000 -0.001189 -0.001717 0.003045
151 1 0.001228 1560.000000 0.001581 0.002926 0.003510
152 1 0.001052 1560.000000 -0.002172 0.001949 0.004831
153 1 0.000979 1560.000000 -0.001817 0.000291 0.002048
154 1 0.001286 1560.000000 -0.002647 -0.001839 0.004620
155 1 0.001085 1560.000000 -0.000081 0.000850 0.002139
156 1 0.000990 1560.000000 -0.000081 0.002105 0.005587
157 1 0.001043 1560.000000 0.001636 -0.000112 0.001860
158 1 0.001309 1560.000000 0.003216 -0.000851 0.002791
159 1 0.000913 1560.000000 0.000608 0.003148 0.006565
160 1 0.000919 1560.000000 0.000536 -0.003106 0.003249
161 1 0.000943 1560.000000 0.003145 -0.000528 0.008915
162 1 0.000993 1560.000000 -0.002811 -0.000099 0.008110
163 1 0.001125 1560.000000 0.001415 -0.002271 0.000643
164 1 0.000919 1560.000000 -0.001406 0.000223 0.006781
165 1 0.001040 1560.000000 0.000690 0.003193 0.008329
166 1 0.001055 1560.000000 0.001075 0.002584 0.009093
167 1 0.001176 1560.000000 0.000851 0.003176 0.000591
168 1 0.001003 1560.000000 -0.001462 0.001511 0.005544
169 1 0.001126 1560.000000 -0.000077 0.003324 0.001347
170 1 0.001068 1560.000000 0.003110 0.000810 0.008495
171 1 0.001011 1560.000000 -0.001661 0.000117 0.008201
172 1 0.001066 1560.000000 -0.000359 -0.003279 0.009094
173 1 0.001303 1560.000000 0.003066 0.001188 0.004082
174 1 0.000983 1560.000000 0.000354 0.002261 0.003558
175 1 0.001137 1560.000000 0.002860 -0.001571 0.009180
176 1 0.001070 1560.000000 0.001246 -0.001279 0.009104
177 1 0.000886 1560.000000 0.002271 -0.000316 0.003675
178 1 0.000983 1560.000000 -0.001987 -0.002490 0.005377
179 1 0.000939 1560.000000 0.000601 -0.000861 0.003477
180 1 0.001177 1560.000000 0.001522 0.002902 0.001690
181 1 0.001036 1560.000000 -0.001200 -0.002874 0.004750
182 1 0.000898 1560.000000 -0.001705 -0.001140 0.005503
183 1 0.001315 1560.000000 0.002732 0.001766 0.007885
184 1 0.001318 1560.000000 -0.002909 -0.001610 0.005936
185 1 0.001218 1560.000000 0.003213 0.000884 0.002316
186 1 0.001234 1560.000000 -0.002394 -0.002298 0.002575
187 1 0.001160 1560.000000 -0.003313 -0.000065 0.003625
188 1 0.001022 1560.000000 -0.003096 -0.001048 0.002151
189 1 0.000966 1560.000000 0.001891 -0.002093 0.004404
190 1 0.001048 1560.000000 -0.002367 0.002338 0.000697
191 1 0.000995 1560.000000 -0.001204 -0.001912 0.002030
192 1 0.001136 1560.000000 -0.001152 -0.002402 0.009223
193 1 0.001083 1560.000000 -0.002588 -0.001768 0.000753
194 1 0.000946 1560.000000 -0.001338 -0.000741 0.006527
195 1 0.000943 1560.000000 -0.000073 0.003254 0.003663
196 1 0.001059 1560.000000 0.000087 0.000958 0.006388
197 1 0.001131 1560.000000 0.001030 0.001019 0.000752
198 1 0.001257 1560.000000 -0.001365 0.002946 0.009266
199 1 0.000891 1560.000000 -0.000445 -0.000273 0.002382
200 1 0.001055 1560.000000 0.001781 0.000748 0.006583
