LAMMPS (29 Aug 2024 - Development - patch_29Aug2024-1045-gbcd123c882-modified)
units           lj
dimension       3
boundary        m m m
atom_style      bpm/sphere
special_bonds   lj 0.0 1.0 1.0 coul 1.0 1.0 1.0
newton          on off
comm_modify     vel yes cutoff 3.3
region          box block -15 15 -15 15 0 60.0
create_box      1 box bond/types 1 extra/bond/per/atom 15 extra/special/per/atom 50
Created orthogonal box = (-15 -15 0) to (15 15 60)
  1 by 1 by 4 MPI processor grid

molecule        my_mol "rect.mol"
Read molecule template my_mol:
#Made with create_mol.py
  1 molecules
  0 fragments
  63 atoms with max type 1
  297 bonds with max type 1
  0 angles with max type 0
  0 dihedrals with max type 0
  0 impropers with max type 0
region          wall_cyl cylinder z 0.0 0.0 10.0 EDGE EDGE side in
region          dropzone cylinder z 0.0 0.0 10.0 40.0 50.0 side in

pair_style      gran/hertz/history 1.0 NULL 0.5 NULL 0.1 1
bond_style      bpm/rotational break no smooth no
pair_coeff      1 1
bond_coeff      1 1.0 0.2 0.01 0.01 0.0 0.0 0.0 0.0 0.2 0.04 0.002 0.002

compute         nbond all nbond/atom
compute         tbond all reduce sum c_nbond
compute         bond_ids all property/local batom1 batom2
compute         bond_properties all bond/local dist b1

compute_modify  thermo_temp dynamic/dof yes

fix             1 all wall/gran hertz/history 1.0 NULL 0.5 NULL 0.1 1 zplane 0.0 NULL
fix             2 all wall/gran/region hertz/history 1.0 NULL 0.5 NULL 0.1 1 region wall_cyl
fix             3 all gravity 1e-4 vector 0 0 -1
fix             4 all deposit 40 0 1500 712511343 mol my_mol region dropzone near 2.0 vz -0.05 -0.05
fix             5 all nve/bpm/sphere

timestep        0.05
thermo_style    custom step ke pe pxx pyy pzz c_tbond
thermo          100
#dump            1 all custom 500 atomDump id radius x y z c_nbond mol
#dump            2 all local 500 bondDump c_bond_ids[*] c_bond_properties[*]
#dump_modify     2 colname 1 "id1" colname 2 "id2" colname 3 "r" colname 4 "r0"

run             100000

CITE-CITE-CITE-CITE-CITE-CITE-CITE-CITE-CITE-CITE-CITE-CITE-CITE

Your simulation uses code contributions which should be cited:

- BPM bond style: doi:10.1039/D3SM01373A

@Article{Clemmer2024,
 author =  {Clemmer, Joel T. and Monti, Joseph M. and Lechman, Jeremy B.},
 title =   {A soft departure from jamming: the compaction of deformable
            granular matter under high pressures},
 journal = {Soft Matter},
 year =    2024,
 volume =  20,
 number =  8,
 pages =   {1702--1718}
}

CITE-CITE-CITE-CITE-CITE-CITE-CITE-CITE-CITE-CITE-CITE-CITE-CITE

Generated 0 of 0 mixed pair_coeff terms from geometric mixing rule
Neighbor list info ...
  update: every = 1 steps, delay = 0 steps, check = yes
  max neighbors/atom: 2000, page size: 100000
  master list distance cutoff = 1.3
  ghost atom cutoff = 3.3
  binsize = 0.65, bins = 47 47 93
  1 neighbor lists, perpetual/occasional/extra = 1 0 0
  (1) pair gran/hertz/history, perpetual
      attributes: half, newton on, size, history
      pair build: half/size/bin/newton
      stencil: half/bin/3d
      bin: standard
Per MPI rank memory allocation (min/avg/max) = 6.515 | 6.515 | 6.515 Mbytes
   Step         KinEng         PotEng          Pxx            Pyy            Pzz          c_tbond    
         0  -0              0              0              0              0              0            
       100   0.0018406759   0              1.2842737e-05  1.3192741e-05  6.1270887e-06  9.4285714    
       200   0.0026054014   0             -9.5238083e-07  4.4390007e-07  2.276027e-06   9.4285714    
       300   0.0036876407   0             -5.2887136e-06  9.5842023e-06  8.3748245e-07  9.4285714    
       400   0.0060252036   0              2.3582937e-05  1.8361861e-05  1.2642656e-05  9.4285714    
       500   0.0074741299   0             -1.789193e-05   3.8580093e-06 -5.0297601e-06  9.4285714    
       600   0.0078175447   0              3.7847082e-06  1.354617e-05   4.1601826e-06  9.4285714    
       700   0.0075880478   0              3.1036029e-06  1.2109603e-05  4.9483946e-06  9.4285714    
       800   0.0074266449   0             -1.4461829e-05  1.231522e-05  -6.7784934e-06  9.4285714    
       900   0.0075837676   0              1.0006431e-05  1.2964224e-05  8.8504998e-06  9.4285714    
      1000   0.0076126304   0             -6.1355256e-06  1.265311e-05  -2.0447118e-06  9.4285714    
      1100   0.0075597634   0             -5.5773504e-06  1.0844777e-05 -3.2960871e-06  9.4285714    
      1200   0.0075328709   0              7.0782206e-06  1.4050653e-05  8.5204975e-06  9.4285714    
      1300   0.0075974351   0             -4.7397195e-06  8.655509e-06  -3.6821711e-06  9.4285714    
      1400   0.0076539613   0              1.0961299e-06  7.9537258e-06  1.2313306e-06  9.4285714    
      1500   0.0076352731   0              3.6111676e-06  1.3125368e-05  5.3101288e-06  9.4285714    
      1600   0.006006423    0              4.7160229e-06  1.5369588e-05  5.0636281e-06  9.4285714    
      1700   0.0080558565   0              7.8138607e-06  2.5257606e-05  1.2709614e-05  9.4285714    
      1800   0.0087849017   0              4.7097929e-06  1.966114e-05   5.0951652e-07  9.4285714    
      1900   0.0087235023   0              4.7873946e-06  1.8019354e-05  2.2496878e-06  9.4285714    
      2000   0.0087131313   0              6.1634351e-06  2.642983e-05   9.0915635e-06  9.4285714    
      2100   0.008427469    0              5.3623387e-06  2.1009078e-05  5.0556283e-06  9.4285714    
      2200   0.0083345607   0              9.7696141e-06  1.8720631e-05  1.0714556e-05  9.4285714    
      2300   0.0083235047   0              6.1986454e-06  1.9747014e-05  3.9220739e-06  9.4285714    
      2400   0.0082916184   0              5.3395802e-06  1.2889835e-05  6.1613557e-06  9.4285714    
      2500   0.0083652166   0              7.0237704e-06  1.8243183e-05  9.9892969e-06  9.4285714    
      2600   0.0083853283   0              4.1611558e-06  1.8566616e-05  5.5120232e-06  9.4285714    
      2700   0.0083229797   0              4.0701286e-06  1.7705798e-05  8.0682541e-06  9.4285714    
      2800   0.0074176723   0              1.1231842e-05  1.4199577e-05  1.0018115e-05  9.4285714    
      2900   0.0073053678   0              7.9279614e-06  1.2570524e-05  9.674908e-06   9.4285714    
      3000   0.0072005684   0              1.2447603e-05  1.7406357e-05  1.0520344e-05  9.4285714    
      3100   0.0048043541   0              2.89055e-05    2.6265305e-05  1.5509896e-05  9.4285714    
      3200   0.0045874892   0              2.4366752e-05  2.0971746e-05  1.7512311e-05  9.4285714    
      3300   0.00479499     0              6.021348e-06   1.2638208e-05  1.4128913e-05  9.4285714    
      3400   0.0048641255   0              2.1441827e-06  9.1775809e-06  1.2309026e-05  9.4285714    
      3500   0.0048481043   0              3.3249511e-06  1.0477521e-05  1.1741911e-05  9.4285714    
      3600   0.0048035761   0              3.8169024e-06  1.4538411e-05  1.2859132e-05  9.4285714    
      3700   0.0046219191   0              4.4420388e-06  1.0004242e-05  1.4136739e-05  9.4285714    
      3800   0.0046060044   0              7.9607264e-06  9.9082273e-06  1.5708136e-05  9.4285714    
      3900   0.0047638587   0              4.9188998e-06  1.3013033e-05  1.2345204e-05  9.4285714    
      4000   0.0049124607   0              5.6510434e-06  1.0154486e-05  1.8085305e-05  9.4285714    
      4100   0.0047106573   0              8.7061818e-06  1.0447188e-05  1.5757898e-05  9.4285714    
      4200   0.003655308    0              3.3017508e-05  3.8729974e-05  1.4755823e-05  9.4285714    
      4300   0.0032761502   0              2.6270899e-05  2.6447932e-05  2.6415843e-05  9.4285714    
      4400   0.0033725658   0             -4.4338353e-06 -1.8747385e-06  1.268695e-05   9.4285714    
      4500   0.0034856288   0              4.2831181e-06  3.3568464e-06  1.6551102e-05  9.4285714    
      4600   0.0030478282   0              4.6046245e-06  5.3455529e-06  2.3135533e-05  9.4285714    
      4700   0.0031168245   0             -2.3364455e-06  1.744307e-06   6.045743e-06   9.4285714    
      4800   0.0031397141   0              3.3093281e-06  3.9055709e-06  1.3666494e-05  9.4285714    
      4900   0.0030578915   0              6.0355899e-06  8.7494431e-06  1.7257175e-05  9.4285714    
      5000   0.0030452045   0              5.7724451e-06  1.607533e-05   7.5387143e-06  9.4285714    
      5100   0.0030773764   0              7.389729e-06   2.1460966e-05  1.0105443e-05  9.4285714    
      5200   0.0030534891   0              7.3340938e-06  2.0052503e-05  8.0875475e-06  9.4285714    
      5300   0.0030589672   0              6.9554983e-06  1.1388617e-05  1.4195538e-05  9.4285714    
      5400   0.0032172786   0              7.0973329e-06  8.4663931e-06  1.0162238e-05  9.4285714    
      5500   0.0032559194   0              5.3565838e-06  5.1852677e-06  3.4336799e-06  9.4285714    
      5600   0.0031908895   0              4.6499297e-06  2.8091094e-06  1.8285395e-05  9.4285714    
      5700   0.0032642757   0              5.709388e-06   4.8224286e-06  1.6427643e-05  9.4285714    
      5800   0.0030990615   0              8.253728e-06   1.0455638e-06  1.659029e-05   9.4285714    
      5900   0.0026341939   0              8.4035319e-06  2.0755718e-06  4.1054501e-05  9.4285714    
      6000   0.0027655242   0              4.248363e-06   5.4168004e-06  1.9470693e-05  9.4285714    
      6100   0.0026042044   0              3.670903e-06   3.4725767e-06  2.1091794e-05  9.4285714    
      6200   0.0028149804   0              4.721359e-06  -7.2919257e-07  2.3223456e-05  9.4285714    
      6300   0.0027103158   0             -6.2559432e-06  1.1706141e-06  1.7446499e-05  9.4285714    
      6400   0.0034563482   0              1.3811125e-05  3.3362683e-05  3.6303419e-05  9.4285714    
      6500   0.0039685735   0              3.9092295e-06  1.7179813e-05  2.1443394e-05  9.4285714    
      6600   0.0040730075   0             -1.730953e-05   1.0027223e-05  1.9674811e-05  9.4285714    
      6700   0.0040325237   0              1.6130719e-05  2.6480155e-05  3.2469986e-05  9.4285714    
      6800   0.0038015372   0             -9.5613177e-06  7.8642293e-06  1.7383877e-05  9.4285714    
      6900   0.0036803202   0              3.3124034e-06  2.8618724e-05  2.7477522e-05  9.4285714    
      7000   0.0033569979   0              1.6030635e-05  5.6277841e-05  4.9488628e-05  9.4285714    
      7100   0.0032876107   0             -9.0485051e-06  3.6383737e-05  2.8925748e-05  9.4285714    
      7200   0.0033908789   0              1.5638438e-05  2.019761e-05   2.8351014e-05  9.4285714    
      7300   0.0035973172   0             -2.0912017e-06  3.6426312e-05  2.4620627e-05  9.4285714    
      7400   0.0036958962   0             -1.3556805e-05  1.1980602e-06  2.2187656e-05  9.4285714    
      7500   0.0037303282   0              1.019358e-05   5.0014974e-06  2.8719888e-05  9.4285714    
      7600   0.0033149916   0             -2.8759622e-06  1.780461e-05   2.7947196e-05  9.4285714    
      7700   0.0034044865   0              4.9316432e-06 -1.3625503e-06  3.0763568e-05  9.4285714    
      7800   0.0037019149   0              1.1189745e-05  6.7366535e-06  3.4816302e-05  9.4285714    
      7900   0.0040016102   0              8.7286599e-06  6.2720751e-06  3.2812711e-05  9.4285714    
      8000   0.0042965823   0              2.3411444e-05  3.1433134e-06  3.6061346e-05  9.4285714    
      8100   0.0049063753   0              2.7128565e-05  7.8650816e-06  3.9110887e-05  9.4285714    
      8200   0.0053524021   0              2.12025e-05    2.9333857e-07  2.5869295e-05  9.4285714    
      8300   0.0052649528   0              2.829196e-05   7.422076e-06   3.2087371e-05  9.4285714    
      8400   0.0052972403   0              2.7200353e-05  1.1049251e-05  4.289512e-05   9.4285714    
      8500   0.0053915935   0              2.9502963e-05  2.9511501e-06  1.6795137e-05  9.4285714    
      8600   0.0053485581   0              3.3169978e-05  5.1868554e-06  2.9428884e-05  9.4285714    
      8700   0.0053414432   0              2.5011908e-05 -1.1061007e-06  4.2577101e-05  9.4285714    
      8800   0.0054352149   0              2.9763406e-05 -1.4099082e-06  1.8442013e-05  9.4285714    
      8900   0.0054817226   0              3.5732941e-05  1.2926928e-06  2.5512543e-05  9.4285714    
      9000   0.0054728461   0              2.7669858e-05 -1.8779558e-06  2.9398806e-05  9.4285714    
      9100   0.0048751494   0              2.6241102e-05  7.2474601e-07  3.5364646e-05  9.4285714    
      9200   0.0049235623   0              3.1465366e-05  1.8587675e-06  3.6884994e-05  9.4285714    
      9300   0.0049408639   0              3.0163037e-05  4.7937501e-06  2.2278557e-05  9.4285714    
      9400   0.0047722286   0              3.0651769e-05  2.0118875e-06  3.8611885e-05  9.4285714    
      9500   0.004531602    0              3.0764127e-05  3.0365718e-06  4.2239782e-05  9.4285714    
      9600   0.0044175792   0              1.6872324e-05  6.3060434e-06  3.5262607e-05  9.4285714    
      9700   0.0044167782   0              2.1136761e-05  5.018754e-06   4.6071459e-05  9.4285714    
      9800   0.0045545638   0              1.9049762e-05  2.4071844e-08  4.8968051e-05  9.4285714    
      9900   0.0047725617   0              3.8862098e-07 -9.2384823e-07  4.5715335e-05  9.4285714    
     10000   0.0047366384   0              9.9108305e-06  8.6495895e-06  3.7838372e-05  9.4285714    
     10100   0.0045925429   0              1.6501456e-05  9.7018497e-06  5.9118233e-05  9.4285714    
     10200   0.0045829044   0              2.3104532e-05  1.0151386e-05  5.5272533e-05  9.4285714    
     10300   0.0044545165   0              3.6515058e-05  2.122633e-05   4.0700397e-05  9.4285714    
     10400   0.0041971922   0              5.0801964e-05  8.0635585e-06  5.6192525e-05  9.4285714    
     10500   0.0042997418   0              3.4801704e-05  1.6066531e-05  5.1783335e-05  9.4285714    
     10600   0.0045718981   0              1.4755359e-06  1.5228806e-05  5.7583702e-05  9.4285714    
     10700   0.0054414967   0              3.999002e-06   8.4499806e-06  5.5171884e-05  9.4285714    
     10800   0.0056085076   0              2.8633627e-06  6.20922e-05    6.0022516e-05  9.4285714    
     10900   0.0052604017   0              5.877959e-06   7.9455011e-05  6.2139123e-05  9.4285714    
     11000   0.0053082441   0              9.1658522e-06  3.4007617e-05  4.2130515e-05  9.4285714    
     11100   0.0051714794   0             -3.1065631e-06  3.1123238e-05  3.7584396e-05  9.4285714    
     11200   0.0051148957   0              1.7374829e-06  5.4777942e-05  4.1123475e-05  9.4285714    
     11300   0.0053229225   0              7.3698463e-06  2.7007909e-05  4.1734231e-05  9.4285714    
     11400   0.0053758011   0              4.5797202e-06  1.1387222e-05  3.8484692e-05  9.4285714    
     11500   0.0051526414   0              2.9815496e-06  4.0393593e-05  4.3663943e-05  9.4285714    
     11600   0.0050898777   0              9.2528053e-06  4.6193681e-05  3.9414289e-05  9.4285714    
     11700   0.0052834511   0              3.6915941e-06  1.5583056e-05  4.2291524e-05  9.4285714    
     11800   0.0053705655   0              5.0167866e-06  1.7777568e-05  5.2655103e-05  9.4285714    
     11900   0.005038774    0              7.9846192e-06  5.1767433e-05  5.2516309e-05  9.4285714    
     12000   0.0049088358   0              1.3229998e-05  3.8692056e-05  5.4513873e-05  9.4285714    
     12100   0.0047131753   0              1.2151329e-05  1.5646141e-05  5.6905538e-05  9.4285714    
     12200   0.0047612378   0              7.2037098e-06  2.3541684e-05  5.1618792e-05  9.4285714    
     12300   0.0045291737   0              6.104216e-06   4.762899e-05   4.2697528e-05  9.4285714    
     12400   0.0046419825   0              1.61855e-05    4.0805231e-05  6.3641318e-05  9.4285714    
     12500   0.0047344433   0              2.4764754e-06  1.8802629e-05  4.8520155e-05  9.4285714    
     12600   0.0045536662   0              4.4271877e-06  5.2628041e-05  5.2207058e-05  9.4285714    
     12700   0.0041503561   0              1.6357247e-05  6.4219786e-05  7.1176195e-05  9.4285714    
     12800   0.0040016029   0              1.1879602e-05  2.3353654e-05  5.6103249e-05  9.4285714    
     12900   0.004171103    0              9.7673848e-06  1.1371969e-05  5.7698324e-05  9.4285714    
     13000   0.0042998958   0              3.1783984e-06 -1.9279498e-06  4.7565927e-05  9.4285714    
     13100   0.0044022014   0              5.5668891e-06  1.393307e-05   5.0604817e-05  9.4285714    
     13200   0.004355277    0              1.0149489e-05  2.4470591e-05  1.8274094e-05  9.4285714    
     13300   0.00450282     0              1.9030821e-06  1.2227582e-05  4.1965075e-05  9.4285714    
     13400   0.0045092683   0              2.9859349e-06  2.1014692e-05  4.8962971e-05  9.4285714    
     13500   0.0041619694   0              7.7977801e-06  2.9009145e-05  4.2163221e-05  9.4285714    
     13600   0.0036824743   0              1.6182689e-05  2.5555515e-05  5.5692705e-05  9.4285714    
     13700   0.0034193768   0              7.2162797e-06  1.4255376e-05  7.2093853e-05  9.4285714    
     13800   0.0036164855   0              5.3843232e-06  3.9591399e-05  7.0739752e-05  9.4285714    
     13900   0.0038578089   0              1.4313784e-05  1.7378028e-05  4.5907547e-05  9.4285714    
     14000   0.0044935876   0              2.5495441e-05  1.0141425e-05  4.5846529e-05  9.4285714    
     14100   0.0046832712   0              9.1104149e-06  1.8529163e-05  5.4273779e-05  9.4285714    
     14200   0.0044686568   0              1.6934692e-05  1.9350858e-05  6.4902787e-05  9.4285714    
     14300   0.004479708    0              2.3124792e-05  3.6035361e-05  5.6198632e-05  9.4285714    
     14400   0.0046304597   0              1.3511672e-05  5.7385237e-06  4.6890692e-05  9.4285714    
     14500   0.0046647072   0              9.4307276e-06  1.0367238e-05  5.0773988e-05  9.4285714    
     14600   0.004501411    0              1.3956753e-05  2.9384019e-05  6.0183e-05     9.4285714    
     14700   0.004342392    0              2.3511793e-05  2.5269096e-05  6.2266367e-05  9.4285714    
     14800   0.0041117854   0              2.7295081e-05  2.8828313e-05  4.893365e-05   9.4285714    
     14900   0.0038091078   0              2.5620881e-05  3.9233141e-05  6.2321946e-05  9.4285714    
     15000   0.0037323488   0              3.2540975e-05  3.920845e-05   7.1140798e-05  9.4285714    
     15100   0.0039478757   0              4.5419989e-05  1.769503e-05   6.4596906e-05  9.4285714    
     15200   0.00467894     0              1.7092964e-05  1.3667883e-05  6.1202598e-05  9.4285714    
     15300   0.0049365228   0              3.6248068e-05  1.3488388e-05  7.0851898e-05  9.4285714    
     15400   0.004877392    0              4.767314e-05   2.597402e-05   5.529912e-05   9.4285714    
     15500   0.0049573148   0              3.7779933e-05  1.9140403e-05  6.116208e-05   9.4285714    
     15600   0.0049927433   0              2.0560768e-05  1.8251382e-05  6.0988289e-05  9.4285714    
     15700   0.0048703913   0              3.3189927e-05  2.160701e-05   6.4055442e-05  9.4285714    
     15800   0.0046293835   0              6.2944952e-05  1.8863222e-05  7.8874809e-05  9.4285714    
     15900   0.0044328498   0              3.5627449e-05  2.5340865e-05  0.00012458268  9.4285714    
     16000   0.004528302    0              2.8554904e-05  1.8623497e-05  0.00010924446  9.4285714    
     16100   0.0045247349   0              4.4396368e-05  1.8292407e-05  5.7642082e-05  9.4285714    
     16200   0.0045236352   0              3.0387021e-05  1.7555075e-05  5.4919568e-05  9.4285714    
     16300   0.0046088719   0              1.7967935e-05  2.044582e-05   5.0372645e-05  9.4285714    
     16400   0.0043337401   0              5.4381937e-05  1.5302671e-05  6.250539e-05   9.4285714    
     16500   0.0042687717   0              4.8872403e-05  1.2851863e-05  7.5358534e-05  9.4285714    
     16600   0.0039673921   0              7.0455035e-06  3.1074749e-05  5.9409944e-05  9.4285714    
     16700   0.0039819976   0              4.0095618e-05  1.2175972e-05  7.531403e-05   9.4285714    
     16800   0.0040030294   0              1.6647469e-05  2.3871103e-05  7.1682472e-05  9.4285714    
     16900   0.0039453757   0              1.3492698e-05  3.6847549e-05  5.9312859e-05  9.4285714    
     17000   0.0040422183   0              4.3781676e-05  1.908762e-05   6.4893015e-05  9.4285714    
     17100   0.0042850054   0              1.7326749e-05  6.1383562e-05  7.2513048e-05  9.4285714    
     17200   0.0043992382   0              1.7726582e-05  2.6471964e-05  6.6950628e-05  9.4285714    
     17300   0.0044284607   0              2.9699481e-05  3.725102e-05   5.4556058e-05  9.4285714    
     17400   0.0043496384   0              2.0535337e-05  2.9446559e-05  5.6131214e-05  9.4285714    
     17500   0.0041364123   0              7.5867295e-05  2.6195015e-05  6.5687048e-05  9.4285714    
     17600   0.0043163506   0              3.3078885e-05  3.8960282e-05  4.7978657e-05  9.4285714    
     17700   0.0042848109   0              1.8757206e-05  2.1841254e-05  2.503573e-05   9.4285714    
     17800   0.0042690741   0              6.6596452e-05  4.8301029e-05  5.0141884e-05  9.4285714    
     17900   0.0043341866   0              1.1220588e-05  3.1803304e-05  3.2237681e-05  9.4285714    
     18000   0.0035849989   0              3.2191699e-05  2.0254501e-05  3.5691091e-05  9.4285714    
     18100   0.0033744551   0              4.6704352e-05  4.6728596e-05  4.6116181e-05  9.4285714    
     18200   0.003324376    0              1.7222589e-05  2.8972869e-05  4.6692246e-05  9.4285714    
     18300   0.003443015    0              3.3708783e-05  4.0578071e-05  4.1304156e-05  9.4285714    
     18400   0.0034771941   0              1.9020433e-05  2.178227e-05   2.9481174e-05  9.4285714    
     18500   0.0034547284   0              1.0445159e-05  1.6107453e-05  4.0891808e-05  9.4285714    
     18600   0.0033938539   0              2.4916162e-05  4.6313484e-05  3.9147806e-05  9.4285714    
     18700   0.0034939014   0              6.7473151e-06  2.419571e-05   3.4096388e-05  9.4285714    
     18800   0.0035298107   0              9.2615938e-06  2.0435624e-05  4.0027701e-05  9.4285714    
     18900   0.0034538446   0              1.9667538e-05  3.4856249e-05  4.0535345e-05  9.4285714    
     19000   0.0034539236   0              6.0689241e-06  3.1626714e-05  4.2237034e-05  9.4285714    
     19100   0.0035174783   0              1.2903682e-05  2.9365824e-05  4.3881457e-05  9.4285714    
     19200   0.0033445131   0              2.5194723e-05  2.7839851e-05  3.3595747e-05  9.4285714    
     19300   0.0028023352   0              3.9299467e-05  3.421431e-05   3.6811429e-05  9.4285714    
     19400   0.0028277692   0              5.0485519e-05  3.8839168e-05  5.1436409e-05  9.4285714    
     19500   0.0030224983   0             -3.0877104e-06  2.3878903e-05  4.021401e-05   9.4285714    
     19600   0.0029078482   0              1.3861201e-05  2.0586401e-05  4.0794975e-05  9.4285714    
     19700   0.0028081549   0              2.8760708e-05  3.772136e-05   6.7202136e-05  9.4285714    
     19800   0.0026851731   0              1.3931802e-05  2.3860731e-05  4.7388853e-05  9.4285714    
     19900   0.0026975277   0              3.4791835e-05  2.5427085e-05  5.4413472e-05  9.4285714    
     20000   0.0026687893   0              1.6822937e-05  3.9225833e-05  5.6980824e-05  9.4285714    
     20100   0.0026330898   0              1.1031642e-05  2.2844628e-05  4.2104562e-05  9.4285714    
     20200   0.0026679077   0              2.3881008e-05  2.2455096e-05  5.500639e-05   9.4285714    
     20300   0.0026289936   0              9.4168874e-06  1.9492641e-05  2.7106714e-05  9.4285714    
     20400   0.0026753194   0              1.7136984e-05  2.4020701e-05  4.2640066e-05  9.4285714    
     20500   0.0026964569   0              1.6969094e-05  3.0883636e-05  6.0287458e-05  9.4285714    
     20600   0.0026269439   0              9.6646122e-06  2.8909527e-05  4.9243574e-05  9.4285714    
     20700   0.0026201713   0              1.9068877e-05  3.6242157e-05  6.7510183e-05  9.4285714    
     20800   0.0026363656   0              1.3051409e-05  2.8567791e-05  5.9242441e-05  9.4285714    
     20900   0.0026284811   0              1.5045945e-05  2.4293652e-05  4.6903807e-05  9.4285714    
     21000   0.0026298958   0              2.4962817e-05  3.1540396e-05  5.4680405e-05  9.4285714    
     21100   0.002604006    0              2.7578851e-05  3.1380626e-05  5.8067042e-05  9.4285714    
     21200   0.0027927517   0              3.1845898e-05  3.2007867e-05  6.3361581e-05  9.4285714    
     21300   0.0029464871   0              3.197127e-05   2.9654558e-05  4.1022177e-05  9.4285714    
     21400   0.0029674816   0              2.6486572e-05  2.0325981e-05  3.7670362e-05  9.4285714    
     21500   0.002912776    0              3.5552261e-05  2.7419521e-05  5.5226397e-05  9.4285714    
     21600   0.0029212892   0              3.4940001e-05  2.9678696e-05  4.1148653e-05  9.4285714    
     21700   0.0028936576   0              2.8733596e-05  9.7531127e-06  3.7294738e-05  9.4285714    
     21800   0.0028981796   0              3.1017838e-05  2.6444029e-05  5.2821294e-05  9.4285714    
     21900   0.002968785    0              1.9867243e-05  2.2082759e-05  3.9817653e-05  9.4285714    
     22000   0.0029604007   0              1.7428713e-05  8.7224328e-06  3.6979721e-05  9.4285714    
     22100   0.0029222376   0              2.3025841e-05  2.861972e-05   5.2686893e-05  9.4285714    
     22200   0.0029471754   0              1.8465043e-05  2.3715222e-05  4.6426097e-05  9.4285714    
     22300   0.0029823066   0              1.2807162e-05  1.7072316e-05  4.8354244e-05  9.4285714    
     22400   0.0029412962   0              1.6465914e-05  2.347325e-05   5.6917929e-05  9.4285714    
     22500   0.0028655139   0              2.2182748e-05  2.8248379e-05  5.5210541e-05  9.4285714    
     22600   0.0027709226   0              1.8330383e-05  4.5796728e-05  8.9424893e-05  9.4285714    
     22700   0.0028335444   0              1.0794836e-05  1.5620726e-05  7.9801128e-05  9.4285714    
     22800   0.0030243092   0              1.7915933e-05  3.2888516e-05  6.5184341e-05  9.4285714    
     22900   0.0031287494   0              2.0074168e-05  4.0303447e-05  5.396891e-05   9.4285714    
     23000   0.003048872    0              1.075768e-05   2.4000183e-05  6.5941388e-05  9.4285714    
     23100   0.0027838253   0              2.2866446e-05  2.3320252e-05  0.00015840066  9.4285714    
     23200   0.0029031692   0              2.7371814e-05  2.683469e-05   0.00011397097  9.4285714    
     23300   0.0029059127   0              2.2202618e-05  2.8777361e-05  2.1259229e-05  9.4285714    
     23400   0.0029582597   0              2.2700584e-05  1.6282524e-05  7.6538142e-05  9.4285714    
     23500   0.0029521383   0              2.6859026e-05  2.2932873e-05  4.0941095e-05  9.4285714    
     23600   0.0029228867   0              2.4875138e-05  2.7804937e-05  2.8934466e-05  9.4285714    
     23700   0.0028943096   0              1.9718571e-05  1.4993543e-05  7.5133746e-05  9.4285714    
     23800   0.0029111728   0              2.4710626e-05  1.279522e-05   2.6813271e-05  9.4285714    
     23900   0.0029743263   0              2.3073352e-05  2.1115768e-05  4.3417285e-05  9.4285714    
     24000   0.0029355354   0              2.1277639e-05  2.586278e-05   5.5266393e-05  9.4285714    
     24100   0.0029425744   0              3.2172061e-05  4.3513795e-05  4.8639202e-05  9.4285714    
     24200   0.0032349673   0              3.8101771e-05  6.7292467e-05  0.0001190773   9.4285714    
     24300   0.0034153051   0              3.4075318e-05  6.6839985e-05  0.00013642068  9.4285714    
     24400   0.0034558648   0              3.1647065e-05  6.0821256e-05  7.203515e-05   9.4285714    
     24500   0.0035254928   0              3.019316e-05   6.4864759e-05  6.2608529e-05  9.4285714    
     24600   0.0034129673   0              4.465623e-05   3.4278486e-05  4.4270355e-05  9.4285714    
     24700   0.0032950508   0              2.8086189e-05  3.7647476e-05  5.6217167e-05  9.4285714    
     24800   0.0031179674   0              4.376804e-05   6.4837034e-05  6.5034414e-05  9.4285714    
     24900   0.0030993997   0              3.5972925e-05  5.4258179e-05  6.1953835e-05  9.4285714    
     25000   0.003166692    0              1.7121966e-05  5.4520195e-05  3.4905587e-05  9.4285714    
     25100   0.0031258131   0              3.9987619e-05  3.5030482e-05  7.1147285e-05  9.4285714    
     25200   0.0031053643   0              2.158721e-05   3.011678e-05   2.2839818e-05  9.4285714    
     25300   0.0030425175   0              3.5836353e-05  4.8994542e-05  4.2361866e-05  9.4285714    
     25400   0.0030697508   0              3.4532992e-05  3.5394575e-05  7.7662436e-05  9.4285714    
     25500   0.0030265652   0              1.2788641e-05  3.456828e-05   1.8632765e-05  9.4285714    
     25600   0.0027854019   0              3.6160824e-05  4.9326634e-05  3.4903881e-05  9.4285714    
     25700   0.0028863761   0              3.840907e-05   4.1429963e-05  7.011236e-05   9.4285714    
     25800   0.0030375994   0              1.1848635e-05  5.6471514e-05  8.5822151e-05  9.4285714    
     25900   0.0033244234   0              2.6175192e-05  6.2309979e-05  8.3432675e-05  9.4285714    
     26000   0.0032704519   0              2.3370636e-05  6.0648401e-05  5.2281928e-05  9.4285714    
     26100   0.0032524997   0              3.6328695e-05  7.3664927e-05  7.8937335e-05  9.4285714    
     26200   0.0030450557   0              1.8263791e-05  4.6620677e-05  4.5818953e-05  9.4285714    
     26300   0.0030253351   0              2.8774136e-05  5.4096161e-05  5.4812315e-05  9.4285714    
     26400   0.0029455796   0              4.4417916e-05  6.0172227e-05  6.0149768e-05  9.4285714    
     26500   0.0028372947   0             -2.0730073e-06  4.7335202e-05  2.3269097e-05  9.4285714    
     26600   0.0029562991   0              2.070073e-05   5.6966531e-05  9.3985132e-05  9.4285714    
     26700   0.0030361889   0              5.7796002e-06  4.6360033e-05  4.3035903e-05  9.4285714    
     26800   0.0028356261   0              3.3174559e-06  3.5846145e-05  2.2735238e-05  9.4285714    
     26900   0.0027324168   0              4.2939853e-05  5.5772402e-05  0.00010805685  9.4285714    
     27000   0.0027044867   0              7.8667443e-06  3.4991619e-05  4.0072467e-05  9.4285714    
     27100   0.0027499364   0              1.674757e-05   3.6711387e-05  6.6791962e-05  9.4285714    
     27200   0.0029250481   0              2.8155772e-05  4.2978943e-05  9.6473699e-05  9.4285714    
     27300   0.0030158344   0              1.3970557e-05  4.8436237e-05  2.4882137e-05  9.4285714    
     27400   0.0032437671   0              3.667415e-05   6.1044185e-05  9.0533929e-05  9.4285714    
     27500   0.0033991773   0              3.3791012e-05  5.2560616e-05  5.2567118e-05  9.4285714    
     27600   0.0033755497   0              2.6601154e-05  5.4840839e-05  2.4778685e-05  9.4285714    
     27700   0.003341232    0              3.5163367e-05  6.1738936e-05  9.6411856e-05  9.4285714    
     27800   0.0033359321   0              3.6419649e-05  6.0233228e-05  3.6462476e-05  9.4285714    
     27900   0.0031467882   0              4.7281738e-05  7.3131877e-05  6.2080263e-05  9.4285714    
     28000   0.0030039755   0              3.3085654e-05  6.7467092e-05  9.0186854e-05  9.4285714    
     28100   0.0029442723   0              2.7184194e-05  4.3266302e-05  3.7188839e-05  9.4285714    
     28200   0.0030644278   0              3.3666048e-05  4.89101e-05    7.5088002e-05  9.4285714    
     28300   0.0028827994   0              2.6674012e-05  6.5020248e-05  4.7900086e-05  9.4285714    
     28400   0.0026614407   0              3.0428743e-05  7.4752674e-05  6.39704e-05    9.4285714    
     28500   0.0027765045   0              2.8174749e-05  5.096122e-05   5.1669328e-05  9.4285714    
     28600   0.0030152691   0              3.4100234e-05  3.4660136e-05  5.8784917e-06  9.4285714    
     28700   0.0033309751   0              5.9203687e-05  3.8696406e-05  5.458022e-05   9.4285714    
     28800   0.0031989581   0              5.1614625e-05  4.616862e-05   6.6601563e-05  9.4285714    
     28900   0.0031151751   0              5.1465877e-05  4.0566825e-05  6.3555446e-05  9.4285714    
     29000   0.003089706    0              5.8452412e-05  4.0068825e-05  6.6735272e-05  9.4285714    
     29100   0.0030529555   0              3.05057e-05    4.5172836e-05  5.2640638e-05  9.4285714    
     29200   0.0028957496   0              6.647284e-05   3.4622222e-05  8.8937577e-05  9.4285714    
     29300   0.0029588155   0              6.3904028e-05  2.3006184e-05  6.4583725e-05  9.4285714    
     29400   0.0029889131   0              2.2230884e-05  2.3139347e-05  6.0516718e-05  9.4285714    
     29500   0.0029388631   0              7.3295891e-05  4.5005748e-05  7.6512988e-05  9.4285714    
     29600   0.0027740662   0              5.6213825e-05  9.9266881e-06  6.7177696e-05  9.4285714    
     29700   0.0026955305   0              5.2321745e-05  1.9264846e-05  5.7946132e-05  9.4285714    
     29800   0.0027025528   0              9.3402593e-05  2.4652423e-05  6.265756e-05   9.4285714    
     29900   0.0026965517   0              3.5522889e-05  1.3150417e-05  6.8882458e-05  9.4285714    
     30000   0.0027512162   0              6.9903581e-05  5.3093763e-05  7.4585465e-05  9.4285714    
     30100   0.0027653321   0              5.2114669e-05  5.8309368e-05  8.6657127e-05  9.4285714    
     30200   0.0027252764   0              2.5562279e-05  3.6691671e-05  6.1597617e-05  9.4285714    
     30300   0.002762022    0              7.3522187e-05  5.9543426e-05  6.1414296e-05  9.4285714    
     30400   0.0028136672   0              2.3623954e-05  2.8735471e-05  6.4297095e-05  9.4285714    
     30500   0.0027741385   0              3.4073413e-05  2.9952486e-05  5.2135446e-05  9.4285714    
     30600   0.0026774151   0              8.2053427e-05  5.3495062e-05  6.1894922e-05  9.4285714    
     30700   0.002382759    0              8.9621432e-05  4.1140036e-05  5.7369718e-05  9.4285714    
     30800   0.0023050315   0              6.0265486e-05  4.5265038e-05  6.7561108e-05  9.4285714    
     30900   0.0023526912   0              6.2348183e-05  3.8610724e-05  5.6183525e-05  9.4285714    
     31000   0.0024037159   0              3.060603e-05   2.1183409e-05  4.8509428e-05  9.4285714    
     31100   0.0024205525   0              1.4541393e-05  4.0296696e-05  4.0624138e-05  9.4285714    
     31200   0.002479098    0              2.65321e-05    2.5543962e-05  5.2920997e-05  9.4285714    
     31300   0.0024549881   0              2.2457425e-05  2.5817816e-05  2.2618345e-05  9.4285714    
     31400   0.0024174905   0              2.8411091e-05  4.6323026e-05  2.742185e-05   9.4285714    
     31500   0.0023657867   0              4.0418758e-05  2.901528e-05   6.6833788e-05  9.4285714    
     31600   0.0023350557   0              4.8383998e-05  4.293807e-05   6.3690065e-05  9.4285714    
     31700   0.0023542614   0              4.0385719e-05  3.7515825e-05  7.4201666e-05  9.4285714    
     31800   0.0022486008   0              4.1963334e-05  4.4781906e-05  9.0390115e-05  9.4285714    
     31900   0.0021107741   0              4.3303725e-05  8.3980448e-05  9.4747474e-05  9.4285714    
     32000   0.0021409832   0              3.4424967e-05  4.9593168e-05  7.3387421e-05  9.4285714    
     32100   0.002112582    0              4.7321632e-05  5.6435933e-05  7.7418185e-05  9.4285714    
     32200   0.0021181679   0              4.5619956e-05  5.4866557e-05  8.8283379e-05  9.4285714    
     32300   0.0021725432   0              1.9405944e-05  1.7827062e-05  6.5588249e-05  9.4285714    
     32400   0.002155614    0              9.77053e-06    3.906653e-05   6.2711643e-05  9.4285714    
     32500   0.0020913829   0              3.0949029e-05  3.2112083e-05  6.4933997e-05  9.4285714    
     32600   0.0021150191   0              3.3154279e-05  2.2091201e-05  7.2286108e-05  9.4285714    
     32700   0.0021451254   0              1.2183567e-05  3.858576e-05   7.4937884e-05  9.4285714    
     32800   0.0020237876   0              2.5929013e-05  2.374572e-05   5.7803736e-05  9.4285714    
     32900   0.0018430119   0              4.4815874e-05  3.7026303e-05  6.3135552e-05  9.4285714    
     33000   0.001740025    0              5.0536575e-05  3.6552583e-05  8.1299772e-05  9.4285714    
     33100   0.001850659    0              1.7289313e-05  2.4296393e-05  7.4344406e-05  9.4285714    
     33200   0.0019069567   0              2.8383197e-05  2.545114e-05   5.1689294e-05  9.4285714    
     33300   0.0018991164   0              5.3200864e-05  2.9076164e-05  5.8744953e-05  9.4285714    
     33400   0.0019290637   0              3.0752441e-05  2.1315269e-05  5.2584662e-05  9.4285714    
     33500   0.0019834442   0              2.9456567e-05  2.3256078e-05  3.5779121e-05  9.4285714    
     33600   0.0019565002   0              2.5217029e-05  2.2677295e-05  5.6496298e-05  9.4285714    
     33700   0.0018575375   0              2.821171e-05   2.0403816e-05  6.2551543e-05  9.4285714    
     33800   0.0018887919   0              2.6929853e-05  3.3889941e-05  6.0934332e-05  9.4285714    
     33900   0.0019353541   0              8.384222e-06   2.365232e-05   5.2177522e-05  9.4285714    
     34000   0.0018764353   0              2.8643415e-05  1.9409741e-05  5.0765557e-05  9.4285714    
     34100   0.0018406672   0              4.0233194e-05  3.3990188e-05  6.13824e-05    9.4285714    
     34200   0.0018900768   0              1.5846665e-05  2.4168382e-05  4.5389662e-05  9.4285714    
     34300   0.0019127939   0              2.7748442e-05  1.6511224e-05  3.7366391e-05  9.4285714    
     34400   0.0018996098   0              2.9191353e-05  1.896553e-05   5.3487603e-05  9.4285714    
     34500   0.0018825592   0              1.866335e-05   1.9347641e-05  5.1453414e-05  9.4285714    
     34600   0.0018729661   0              3.5547556e-05  3.7123705e-05  6.8952045e-05  9.4285714    
     34700   0.0018508656   0              3.9275598e-05  3.2698716e-05  7.9564684e-05  9.4285714    
     34800   0.0018146827   0              4.8101818e-05  1.9935529e-05  6.2366778e-05  9.4285714    
     34900   0.0017427349   0              5.8017525e-05  2.8778292e-05  8.1697529e-05  9.4285714    
     35000   0.0017514892   0              4.3069739e-05  1.0742082e-05  8.686099e-05   9.4285714    
     35100   0.0016552485   0              2.7806181e-05  6.0559071e-06  6.7244873e-05  9.4285714    
     35200   0.0015221994   0              4.1590056e-05  4.5313058e-05  9.6370975e-05  9.4285714    
     35300   0.0015315851   0              1.9506433e-05  2.4700328e-05  6.6583926e-05  9.4285714    
     35400   0.00158809     0              1.598001e-05   1.362832e-05   5.5220566e-05  9.4285714    
     35500   0.0015914104   0              3.5008197e-05  2.3856051e-05  8.2330414e-05  9.4285714    
     35600   0.001565483    0              2.6440925e-05  1.8005684e-05  6.084583e-05   9.4285714    
     35700   0.001571479    0              2.6919893e-05  2.5244538e-05  5.3346479e-05  9.4285714    
     35800   0.001571655    0              1.1813324e-05  1.8804279e-05  7.1799089e-05  9.4285714    
     35900   0.0015263597   0              1.759118e-05   1.9915199e-05  7.7600393e-05  9.4285714    
     36000   0.0014257136   0              2.1964044e-05  4.327892e-05   8.5323153e-05  9.4285714    
     36100   0.0014617841   0              1.8296209e-05  3.7253493e-05  6.5934539e-05  9.4285714    
     36200   0.0016033662   0              3.1342381e-05  2.1968676e-05  7.7572239e-05  9.4285714    
     36300   0.0016273885   0              1.3210354e-05  3.3088408e-05  7.3360746e-05  9.4285714    
     36400   0.001862934    0              2.262698e-05   4.4262761e-05  7.3251945e-05  9.4285714    
     36500   0.0019494493   0              1.4107819e-05  4.1171949e-05  5.4901336e-05  9.4285714    
     36600   0.0018953399   0              9.8679977e-06  4.3238901e-05  5.971232e-05   9.4285714    
     36700   0.0018409505   0              2.6783499e-05  3.9781779e-05  6.9249517e-05  9.4285714    
     36800   0.0018940846   0              1.3701003e-05  4.258314e-05   3.6849223e-05  9.4285714    
     36900   0.0019312011   0              6.8081135e-06  3.9322831e-05  4.4692334e-05  9.4285714    
     37000   0.0018848971   0              2.2438749e-05  2.6801011e-05  5.7182853e-05  9.4285714    
     37100   0.0018577956   0              2.0496208e-05  3.9862599e-05  5.8943261e-05  9.4285714    
     37200   0.0017303772   0              8.5763161e-06  4.1761678e-05  6.1854001e-05  9.4285714    
     37300   0.0016211525   0              1.5769353e-05  8.6262611e-06  4.6250651e-05  9.4285714    
     37400   0.0015754306   0              3.3022684e-05  3.8367443e-05  7.1019436e-05  9.4285714    
     37500   0.0015691406   0              2.0349234e-05  4.878697e-05   9.2676001e-05  9.4285714    
     37600   0.0015775583   0              1.5362628e-05  2.437589e-05   8.0842202e-05  9.4285714    
     37700   0.0016543347   0              4.335544e-05   3.6582121e-05  8.6191322e-05  9.4285714    
     37800   0.0016215571   0              2.2281322e-05  3.5787505e-05  7.382495e-05   9.4285714    
     37900   0.001570463    0              7.4371724e-06  5.394285e-05   5.178288e-05   9.4285714    
     38000   0.0016528658   0              1.7676821e-05  4.6549715e-05  7.4939039e-05  9.4285714    
     38100   0.0016484889   0              5.8587299e-06 -4.9107938e-07  5.7645076e-05  9.4285714    
     38200   0.0015984293   0              1.0671822e-05  3.4470822e-05  6.3745018e-05  9.4285714    
     38300   0.0015710865   0              4.4087264e-06  6.1197092e-05  6.8343309e-05  9.4285714    
     38400   0.0015793526   0              4.7461657e-06  3.7878407e-05  4.7745506e-05  9.4285714    
     38500   0.00159328     0              2.0539368e-05  3.9420528e-05  6.0739849e-05  9.4285714    
     38600   0.0015628995   0              2.4761081e-06  2.7232923e-05  6.5840751e-05  9.4285714    
     38700   0.0015511665   0              1.3285488e-05  3.1789534e-05  6.571997e-05   9.4285714    
     38800   0.0015047736   0              3.5850221e-05  5.0541292e-05  7.4329443e-05  9.4285714    
     38900   0.0014543448   0              1.9520164e-05  3.3703216e-05  8.2553257e-05  9.4285714    
     39000   0.0014049414   0              2.0563188e-05  4.6282108e-05  9.573642e-05   9.4285714    
     39100   0.0013592667   0              3.7448207e-05  3.3625511e-05  7.9968675e-05  9.4285714    
     39200   0.0014283692   0              1.4613867e-05  1.4624639e-05  7.8329315e-05  9.4285714    
     39300   0.0014980879   0              2.632332e-05   2.5830124e-05  6.7754562e-05  9.4285714    
     39400   0.0015239204   0              5.0406984e-05  2.4875194e-05  5.8899223e-05  9.4285714    
     39500   0.0015827769   0              4.6007741e-05  4.3947253e-05  7.1960056e-05  9.4285714    
     39600   0.0016911946   0              4.2152926e-05  4.2468337e-05  6.8038708e-05  9.4285714    
     39700   0.0017371562   0              5.4576123e-05  3.818247e-05   5.3315764e-05  9.4285714    
     39800   0.0016905784   0              4.8696801e-05  5.1934452e-05  5.9622933e-05  9.4285714    
     39900   0.0016679735   0              4.9650941e-05  6.2065498e-05  6.7678814e-05  9.4285714    
     40000   0.0016804728   0              2.6936787e-05  3.6772729e-05  6.8197494e-05  9.4285714    
     40100   0.0016953728   0              3.2845556e-05  4.8277263e-07  6.2189335e-05  9.4285714    
     40200   0.001661138    0              3.6282353e-05  3.4426968e-05  5.4259796e-05  9.4285714    
     40300   0.0016646181   0              2.7467829e-05  3.1713464e-05  5.914136e-05   9.4285714    
     40400   0.0016460484   0              4.8049299e-05  1.6139482e-05  7.0993842e-05  9.4285714    
     40500   0.001584111    0              4.8662486e-05  4.9496364e-05  6.603143e-05   9.4285714    
     40600   0.0015294729   0              3.802145e-05   3.1760814e-05  6.8855123e-05  9.4285714    
     40700   0.0015176504   0              4.0052592e-05  3.1861316e-05  7.8780588e-05  9.4285714    
     40800   0.0015605556   0              2.7701428e-05  2.423322e-05   6.4544184e-05  9.4285714    
     40900   0.0015536145   0              1.3848621e-05 -6.1126439e-07  6.3259453e-05  9.4285714    
     41000   0.0015310077   0              2.8421261e-05  3.4918038e-05  6.7797468e-05  9.4285714    
     41100   0.0015247209   0              2.0741223e-05  2.9128868e-05  6.029826e-05   9.4285714    
     41200   0.0015059107   0              1.6000876e-05  6.6996209e-06  7.9823117e-05  9.4285714    
     41300   0.0014429996   0              3.3652684e-05  3.1548027e-05  9.5593662e-05  9.4285714    
     41400   0.0014050396   0              6.5381009e-06  4.2947868e-05  9.4137894e-05  9.4285714    
     41500   0.0013865248   0             -6.6520071e-06  2.2003908e-05  7.078385e-05   9.4285714    
     41600   0.0013961027   0              2.2230932e-05  3.7090424e-05  0.00011151118  9.4285714    
     41700   0.0014117253   0              3.0130095e-05  3.6007809e-05  7.8176416e-05  9.4285714    
     41800   0.0013882283   0              1.3288874e-05  2.7573529e-05  5.9201334e-05  9.4285714    
     41900   0.0013753318   0              1.6984699e-05  3.6009436e-05  0.0001074797   9.4285714    
     42000   0.0013513945   0              1.7069135e-05  2.7993012e-05  9.1820042e-05  9.4285714    
     42100   0.0013863187   0              1.1155401e-05  4.553084e-05   9.7133876e-05  9.4285714    
     42200   0.0014933369   0              2.0831243e-05  5.087146e-05   8.784321e-05   9.4285714    
     42300   0.0015198423   0              1.0125181e-05  2.4600202e-05  6.2380383e-05  9.4285714    
     42400   0.0015221508   0              6.7561665e-06  3.6631691e-05  9.2684019e-05  9.4285714    
     42500   0.0015024243   0              2.7000681e-05  3.4307844e-05  6.7639862e-05  9.4285714    
     42600   0.0014893063   0              2.2128038e-05  3.5609622e-05  6.1427776e-05  9.4285714    
     42700   0.001499974    0              1.9097097e-05  3.4788871e-05  9.5912141e-05  9.4285714    
     42800   0.0015009281   0              2.4859527e-05  1.9268361e-05  6.8128418e-05  9.4285714    
     42900   0.0015031569   0              2.5009903e-05  2.9940853e-05  6.0578918e-05  9.4285714    
     43000   0.0014454794   0              4.4527001e-05  3.0364691e-05  7.4964032e-05  9.4285714    
     43100   0.001404434    0              5.8064814e-05  2.0201863e-05  7.0949978e-05  9.4285714    
     43200   0.0014048357   0              3.506138e-05   3.4776921e-05  8.0565203e-05  9.4285714    
     43300   0.0014138482   0              2.3721192e-05  3.2374127e-05  6.6747875e-05  9.4285714    
     43400   0.0013970565   0              1.9946066e-05  3.2758634e-05  7.3460323e-05  9.4285714    
     43500   0.0013955246   0              2.0121957e-05  3.8102995e-05  7.8275265e-05  9.4285714    
     43600   0.0014327655   0              2.6929081e-05  2.1831174e-05  6.7351934e-05  9.4285714    
     43700   0.0015031566   0              2.8744415e-05  3.5314431e-05  6.7917455e-05  9.4285714    
     43800   0.0016007805   0              4.9300269e-05  5.2531669e-05  8.1673155e-05  9.4285714    
     43900   0.0016871966   0              5.7903055e-05  5.8931487e-05  7.2381839e-05  9.4285714    
     44000   0.0017433511   0              4.8323375e-05  5.7285131e-05  3.9859077e-05  9.4285714    
     44100   0.0017096036   0              3.6345002e-05  4.5060973e-05  7.2336376e-05  9.4285714    
     44200   0.0016524366   0              4.6380669e-05  6.3320421e-05  9.6708837e-05  9.4285714    
     44300   0.0016566529   0              3.5636796e-05  7.6368249e-05  7.62331e-05    9.4285714    
     44400   0.0016503804   0              3.9172358e-05  5.6168788e-05  6.4579533e-05  9.4285714    
     44500   0.0016126454   0              4.4554414e-05  6.5633847e-05  8.287072e-05   9.4285714    
     44600   0.0015820491   0              3.3726182e-05  9.0977476e-05  8.5942347e-05  9.4285714    
     44700   0.0012596787   0              4.4895722e-05  5.9163212e-05  6.9212547e-05  9.4285714    
     44800   0.0012150743   0              3.6359427e-05  4.1282726e-05  9.0699449e-05  9.4285714    
     44900   0.0012437188   0              3.4560213e-05  3.0722383e-05  5.9605755e-05  9.4285714    
     45000   0.0012779821   0              4.1282676e-05  5.0767841e-05  5.6288275e-05  9.4285714    
     45100   0.0012623526   0              3.4476846e-05  2.9773147e-05  5.2191912e-05  9.4285714    
     45200   0.0012896009   0              4.114665e-05   2.5284854e-05  6.0876039e-05  9.4285714    
     45300   0.0012853341   0              4.8527658e-05  2.0069362e-05  6.6996527e-05  9.4285714    
     45400   0.0013361987   0              4.5881621e-05  1.8001757e-05  6.7234675e-05  9.4285714    
     45500   0.0013927353   0              4.6101251e-05  1.3981484e-05  6.3492122e-05  9.4285714    
     45600   0.0014198964   0              5.5443094e-05  2.1179803e-05  7.0197111e-05  9.4285714    
     45700   0.0014801207   0              7.0984118e-05  2.8583955e-05  6.7700562e-05  9.4285714    
     45800   0.0015579503   0              6.937725e-05   3.4791292e-05  5.9678447e-05  9.4285714    
     45900   0.0015584674   0              7.0115212e-05  4.7527248e-05  7.0089399e-05  9.4285714    
     46000   0.0014923368   0              6.8734502e-05  3.8294697e-05  5.6331338e-05  9.4285714    
     46100   0.0014912511   0              6.4174805e-05  2.4795442e-05  5.3006287e-05  9.4285714    
     46200   0.0015162305   0              5.9799315e-05  3.9482509e-05  5.9487266e-05  9.4285714    
     46300   0.0015497448   0              4.3674411e-05  3.2802877e-05  4.4985426e-05  9.4285714    
     46400   0.0015709594   0              4.5263389e-05 -5.3960008e-06  4.5841288e-05  9.4285714    
     46500   0.0015640817   0              3.6981938e-05  3.5353885e-05  4.9564163e-05  9.4285714    
     46600   0.001550004    0              3.2474916e-05  4.153406e-05   5.1697382e-05  9.4285714    
     46700   0.0015974044   0              4.6324057e-05  1.1509938e-05  5.9560845e-05  9.4285714    
     46800   0.0016632586   0              4.490488e-05   3.5296632e-05  6.1766018e-05  9.4285714    
     46900   0.0016794098   0              4.4301704e-05  3.7788616e-05  5.967362e-05   9.4285714    
     47000   0.0017580945   0              6.6504945e-05  4.9082566e-05  6.5533612e-05  9.4285714    
     47100   0.0018650028   0              5.145719e-05   5.215116e-05   6.3205077e-05  9.4285714    
     47200   0.0018852648   0              6.3537699e-05  5.5242241e-05  6.4040264e-05  9.4285714    
     47300   0.0018012411   0              6.5902624e-05  6.8503287e-05  5.3278653e-05  9.4285714    
     47400   0.0017813175   0              4.1247872e-05  6.0288292e-05  5.5158267e-05  9.4285714    
     47500   0.0017712621   0              5.8794427e-05  4.8192973e-05  3.9564999e-05  9.4285714    
     47600   0.0014983113   0              6.1528046e-05  3.9452241e-05  5.2456251e-05  9.4285714    
     47700   0.0014210781   0              3.9534178e-05  3.3213677e-05  6.019428e-05   9.4285714    
     47800   0.0015248822   0              5.2526977e-05  4.2140167e-05  2.5787538e-05  9.4285714    
     47900   0.0015982347   0              3.7157073e-05  3.2482618e-05  4.3174668e-05  9.4285714    
     48000   0.0016017453   0              4.7591793e-05  1.5611074e-05  5.2033754e-05  9.4285714    
     48100   0.0015951994   0              6.1254157e-05  3.4175393e-05  4.3900481e-05  9.4285714    
     48200   0.0016917466   0              5.7967266e-05  5.0193865e-05  6.2494378e-05  9.4285714    
     48300   0.0018311545   0              6.8256986e-05  4.865834e-05   7.4005593e-05  9.4285714    
     48400   0.001663258    0              8.4355633e-05  3.2852117e-05  6.6773781e-05  9.4285714    
     48500   0.0015451602   0              5.2025572e-05  3.6312967e-05  7.1034232e-05  9.4285714    
     48600   0.0015809499   0              4.4287332e-05  4.2386687e-05  5.9021201e-05  9.4285714    
     48700   0.0015622921   0              4.0603813e-05  3.1889011e-05  5.419145e-05   9.4285714    
     48800   0.0015452556   0              5.6411924e-05  2.9309787e-05  5.9778868e-05  9.4285714    
     48900   0.0015809688   0              3.4077578e-05  3.7449741e-05  6.5423745e-05  9.4285714    
     49000   0.0015096577   0              3.4921753e-05  4.6405011e-05  5.4124634e-05  9.4285714    
     49100   0.0014794912   0              4.725593e-05   7.3468911e-05  8.4504595e-05  9.4285714    
     49200   0.0013908791   0              6.2532426e-05  7.2584645e-05  7.7992763e-05  9.4285714    
     49300   0.001331941    0              8.3970791e-05  5.6802893e-05  8.5864931e-05  9.4285714    
     49400   0.0012849302   0              3.5098043e-05  4.8687728e-05  8.4263421e-05  9.4285714    
     49500   0.0012703335   0              3.2337991e-05  4.1421455e-05  6.363085e-05   9.4285714    
     49600   0.0013663929   0              3.6702318e-05  3.5124696e-05  6.3491658e-05  9.4285714    
     49700   0.0014410308   0              3.2939374e-06  2.2368693e-05  6.7690366e-05  9.4285714    
     49800   0.0013777961   0              2.1557945e-05  4.0513612e-05  5.3381336e-05  9.4285714    
     49900   0.0013630247   0              3.7282249e-05  4.5943806e-05  6.7644867e-05  9.4285714    
     50000   0.001430246    0              1.7303432e-05  2.193594e-05   6.4740083e-05  9.4285714    
     50100   0.0014144645   0              1.5676512e-05  3.6056804e-05  5.6289473e-05  9.4285714    
     50200   0.001306106    0              3.1980903e-05  4.9952019e-05  7.5959001e-05  9.4285714    
     50300   0.0012870177   0              5.047748e-05   5.174361e-05   7.9115671e-05  9.4285714    
     50400   0.0013497605   0              2.1318565e-05  4.1118782e-05  6.7052102e-05  9.4285714    
     50500   0.0013387412   0              4.1054827e-07  2.106858e-05   6.7436309e-05  9.4285714    
     50600   0.0012977904   0              6.0369247e-05  4.0912426e-05  7.5786036e-05  9.4285714    
     50700   0.0012999712   0              4.9274273e-05  3.3964501e-05  7.3552972e-05  9.4285714    
     50800   0.0012646646   0              3.9810791e-05  4.6119904e-05  7.3660024e-05  9.4285714    
     50900   0.0011627247   0              6.3221966e-05  3.4209985e-05  9.1260766e-05  9.4285714    
     51000   0.0011224602   0              3.1336367e-06  2.1749266e-05  6.8170284e-05  9.4285714    
     51100   0.0011554569   0              6.1200658e-05  4.0983542e-05  8.1784697e-05  9.4285714    
     51200   0.0012349075   0              6.6381864e-05  1.3005243e-05  6.5810605e-05  9.4285714    
     51300   0.0011920985   0             -1.0744783e-05  1.5340585e-05  6.7493128e-05  9.4285714    
     51400   0.0011810026   0              6.6593256e-05  4.128025e-05   0.00010941824  9.4285714    
     51500   0.0011861699   0              5.6645968e-05  2.8472362e-05  6.0511711e-05  9.4285714    
     51600   0.0012240206   0              2.1100894e-05  2.7935451e-05  6.4717546e-05  9.4285714    
     51700   0.0012104336   0              4.3108243e-05  3.976457e-05   0.00011078365  9.4285714    
     51800   0.0011824965   0              2.2269955e-05  4.8730228e-05  7.6176372e-05  9.4285714    
     51900   0.0012107078   0              3.7297559e-05  4.7362219e-05  9.2333509e-05  9.4285714    
     52000   0.0012180885   0              4.8181798e-05  3.4816739e-05  9.0290946e-05  9.4285714    
     52100   0.0011780719   0              2.9276832e-05  3.8790922e-05  8.494653e-05   9.4285714    
     52200   0.001104839    0              4.2588723e-05  4.2660056e-05  0.00011393396  9.4285714    
     52300   0.0011123145   0              4.357949e-05   3.2344034e-05  8.1936335e-05  9.4285714    
     52400   0.001096837    0              3.9790937e-05  3.689969e-05   7.9488273e-05  9.4285714    
     52500   0.0010926267   0              5.6825751e-05  4.8418389e-05  0.00010830164  9.4285714    
     52600   0.001115873    0              4.2951455e-05  4.8266165e-05  6.4679129e-05  9.4285714    
     52700   0.0011356205   0              5.6118811e-05  4.895045e-05   8.6317038e-05  9.4285714    
     52800   0.0011692645   0              6.8584886e-05  5.5147538e-05  9.9726278e-05  9.4285714    
     52900   0.0012447646   0              6.0890903e-05  6.5997e-05     8.0185069e-05  9.4285714    
     53000   0.0013276016   0              7.1286295e-05  6.0747485e-05  7.2816682e-05  9.4285714    
     53100   0.0013039314   0              6.4064864e-05  5.7518336e-05  6.4392756e-05  9.4285714    
     53200   0.0013038847   0              4.578846e-05   5.6853804e-05  8.6664313e-05  9.4285714    
     53300   0.0012978484   0              4.7008936e-05  5.5328947e-05  7.9406136e-05  9.4285714    
     53400   0.0013091507   0              5.2916548e-05  5.1537072e-05  5.1246436e-05  9.4285714    
     53500   0.0013048663   0              4.887723e-05   4.4807236e-05  6.2430874e-05  9.4285714    
     53600   0.0013009978   0              5.0592564e-05  4.0312326e-05  8.2420432e-05  9.4285714    
     53700   0.0013064131   0              5.4132133e-05  4.5874464e-05  4.3559251e-05  9.4285714    
     53800   0.0013021898   0              4.6217323e-05  5.6786468e-05  4.3986938e-05  9.4285714    
     53900   0.0012686345   0              5.0198667e-05  5.44896e-05    7.5000702e-05  9.4285714    
     54000   0.0012358914   0              5.1789644e-05  4.4583221e-05  6.8402278e-05  9.4285714    
     54100   0.0012408854   0              3.5815839e-05  4.2287352e-05  6.1390329e-05  9.4285714    
     54200   0.0011858358   0              3.9605034e-05  5.5897001e-05  6.7527358e-05  9.4285714    
     54300   0.0011203314   0              3.8253997e-05  3.7780626e-05  8.8316894e-05  9.4285714    
     54400   0.0011203585   0              4.0304312e-05  2.4198377e-05  9.2599368e-05  9.4285714    
     54500   0.0011366429   0              4.1873664e-05  4.3368258e-05  6.9453987e-05  9.4285714    
     54600   0.00111231     0              3.9662859e-05  4.6808661e-05  5.3358965e-05  9.4285714    
     54700   0.0011082223   0              3.2408762e-05  4.2094332e-05  7.2484409e-05  9.4285714    
     54800   0.0011153521   0              3.8035279e-05  3.3439276e-05  7.0959277e-05  9.4285714    
     54900   0.0010956569   0              3.1503844e-05  3.0480363e-05  6.0807879e-05  9.4285714    
     55000   0.00094683736  0              6.3050995e-05  9.1381836e-05  7.4157459e-05  9.4285714    
     55100   0.00085738884  0              5.4162732e-05  8.8233107e-05  8.2117059e-05  9.4285714    
     55200   0.00089232191  0              3.4880035e-05  2.4444005e-05  7.8094552e-05  9.4285714    
     55300   0.00090181492  0              5.4646961e-05  5.228637e-05   9.2572385e-05  9.4285714    
     55400   0.00088962176  0              4.5252166e-05  3.8983853e-05  6.5678103e-05  9.4285714    
     55500   0.00088926437  0              3.493832e-05   4.1363235e-05  4.3893091e-05  9.4285714    
     55600   0.00095128085  0              4.8488772e-05  6.8535054e-05  7.2264114e-05  9.4285714    
     55700   0.00089306718  0              3.4508106e-05  3.0466257e-05  4.7314243e-05  9.4285714    
     55800   0.00088062835  0              4.390357e-05   7.2304456e-05  7.9656825e-05  9.4285714    
     55900   0.00086938762  0              3.5602471e-05  3.7012762e-05  8.7961418e-05  9.4285714    
     56000   0.00084791645  0              2.4587324e-05  2.8420646e-05  8.6520499e-05  9.4285714    
     56100   0.00084908574  0              3.5988814e-05  6.8661771e-05  9.6568652e-05  9.4285714    
     56200   0.00084939412  0              6.6449608e-06  1.7476822e-05  6.7373409e-05  9.4285714    
     56300   0.0008363476   0              2.1711741e-05  3.3757906e-05  8.0761495e-05  9.4285714    
     56400   0.000794016    0              4.2003796e-05  5.1055073e-05  8.1681457e-05  9.4285714    
     56500   0.00081851325  0              2.0938565e-05  2.464949e-05   6.0320994e-05  9.4285714    
     56600   0.00082053882  0              3.0131161e-05  3.6296626e-05  5.8942389e-05  9.4285714    
     56700   0.00080313789  0              4.3200674e-05  3.4818428e-05  6.8080951e-05  9.4285714    
     56800   0.00080862283  0              2.7953944e-05  2.593842e-05   5.4136841e-05  9.4285714    
     56900   0.00080797804  0              3.1435725e-05  3.9907489e-05  5.4523729e-05  9.4285714    
     57000   0.00078565112  0              2.4966072e-05  4.2140354e-05  5.5759038e-05  9.4285714    
     57100   0.00079399786  0              2.8332972e-05  3.7413633e-05  4.9670756e-05  9.4285714    
     57200   0.0008000982   0              3.2204636e-05  2.8811183e-05  5.4247256e-05  9.4285714    
     57300   0.00080246804  0              2.2681395e-05  2.6046921e-05  5.7216619e-05  9.4285714    
     57400   0.0007877642   0              3.7947776e-05  3.2523017e-05  5.6053358e-05  9.4285714    
     57500   0.0007860211   0              5.0162479e-05  3.7111684e-05  6.2390457e-05  9.4285714    
     57600   0.00078336961  0              3.864222e-05   2.8991529e-05  5.8708077e-05  9.4285714    
     57700   0.00077615739  0              3.8565434e-05  3.3513366e-05  6.0053094e-05  9.4285714    
     57800   0.00077454851  0              3.0389748e-05  3.7613017e-05  6.8094181e-05  9.4285714    
     57900   0.00077662304  0              2.5354181e-05  3.7021458e-05  6.7217863e-05  9.4285714    
     58000   0.00078848282  0              2.6979538e-05  3.3746385e-05  6.4561227e-05  9.4285714    
     58100   0.00078272979  0              1.9243521e-05  2.8559736e-05  6.6141835e-05  9.4285714    
     58200   0.00076149968  0              1.9535014e-05  3.789365e-05   7.0052408e-05  9.4285714    
     58300   0.000763035    0              2.1948531e-05  3.954981e-05   7.7015059e-05  9.4285714    
     58400   0.00075915903  0              1.7591078e-05  2.2258504e-05  7.479081e-05   9.4285714    
     58500   0.00075047498  0              1.7244716e-05  2.6122357e-05  7.8382408e-05  9.4285714    
     58600   0.00078842521  0              1.4192266e-05  2.9266351e-05  8.0160703e-05  9.4285714    
     58700   0.00080531146  0              7.0538516e-06  1.9408586e-05  7.0982863e-05  9.4285714    
     58800   0.00079267656  0              2.0630753e-05  2.7136197e-05  7.1915268e-05  9.4285714    
     58900   0.00077837989  0              1.9950131e-05  2.9283262e-05  7.0607767e-05  9.4285714    
     59000   0.00076268915  0              1.3125986e-05  3.1633975e-05  7.4519831e-05  9.4285714    
     59100   0.00073382081  0              3.5020254e-05  3.812067e-05   7.734654e-05   9.4285714    
     59200   0.00069392884  0              5.6280181e-05  4.4920134e-05  6.7334762e-05  9.4285714    
     59300   0.00067699597  0              5.1625332e-05  4.3045634e-05  6.6447686e-05  9.4285714    
     59400   0.00070838508  0              3.5638472e-05  2.5879928e-05  6.5337589e-05  9.4285714    
     59500   0.00071669183  0              3.3154936e-05  3.4826944e-05  6.4729304e-05  9.4285714    
     59600   0.00065855704  0              3.0591887e-05  3.0291762e-05  8.449991e-05   9.4285714    
     59700   0.00061671139  0              3.0392665e-05  1.6863434e-05  8.6504376e-05  9.4285714    
     59800   0.00062189217  0              2.1511805e-05  2.5294946e-05  6.538177e-05   9.4285714    
     59900   0.00063915137  0              2.0531708e-05  2.9665491e-05  8.5551338e-05  9.4285714    
     60000   0.00063508738  0              2.0200579e-05  2.4325355e-05  7.9201221e-05  9.4285714    
     60100   0.00063014175  0              1.9049912e-05  2.3743517e-05  5.7107412e-05  9.4285714    
     60200   0.00059917116  0              4.0182823e-05  2.8869854e-05  7.3792291e-05  9.4285714    
     60300   0.00060452978  0              3.8177138e-05  3.6712461e-05  6.2351083e-05  9.4285714    
     60400   0.0006225319   0              1.9134976e-05  2.0279448e-05  5.2938213e-05  9.4285714    
     60500   0.00062247798  0              4.1048478e-05  1.5742494e-05  5.4139494e-05  9.4285714    
     60600   0.00060151604  0              3.3494483e-05  2.8924931e-05  5.0894613e-05  9.4285714    
     60700   0.00057977549  0              2.522371e-05   2.0748979e-05  7.1254971e-05  9.4285714    
     60800   0.00057013518  0              5.0410904e-05  2.7782967e-05  7.0369653e-05  9.4285714    
     60900   0.00056670422  0              3.1423247e-05  3.7439116e-05  5.7451888e-05  9.4285714    
     61000   0.00056267995  0              2.0779974e-05  2.1570651e-05  6.3299948e-05  9.4285714    
     61100   0.00055922981  0              3.3539257e-05  2.4373735e-05  5.5286713e-05  9.4285714    
     61200   0.00057884989  0              2.4218281e-05  3.8059418e-05  4.8780832e-05  9.4285714    
     61300   0.00056896374  0              2.9412667e-05  2.2561342e-05  5.7409361e-05  9.4285714    
     61400   0.00055403782  0              4.0698115e-05  3.0700937e-05  6.1253039e-05  9.4285714    
     61500   0.00054575955  0              3.3523659e-05  4.0547532e-05  5.7254845e-05  9.4285714    
     61600   0.00054534484  0              3.2863762e-05  3.3623403e-05  6.2684641e-05  9.4285714    
     61700   0.00053575752  0              3.1820619e-05  3.7735983e-05  5.6446619e-05  9.4285714    
     61800   0.00050924136  0              3.7547282e-05  2.1982693e-05  6.0035121e-05  9.4285714    
     61900   0.00050726904  0              5.0881295e-05  2.4289477e-05  6.8832171e-05  9.4285714    
     62000   0.00049551903  0              3.6291861e-05  3.7971418e-05  5.9652751e-05  9.4285714    
     62100   0.00047134428  0              4.2864103e-05  2.4080638e-05  6.5786273e-05  9.4285714    
     62200   0.00047770022  0              3.3424968e-05  2.8470305e-05  6.0100111e-05  9.4285714    
     62300   0.00049816357  0              2.1047065e-05  3.066098e-05   5.3128554e-05  9.4285714    
     62400   0.0005160559   0              2.375004e-05   1.6124191e-05  6.0422951e-05  9.4285714    
     62500   0.00049840793  0              2.0983461e-05  1.8649261e-05  6.4444257e-05  9.4285714    
     62600   0.00048816935  0              2.7000406e-05  1.8925499e-05  6.6470797e-05  9.4285714    
     62700   0.00050525774  0              1.5590225e-05  1.7140838e-05  6.3637e-05     9.4285714    
     62800   0.00050739365  0              1.7831244e-05  2.1337053e-05  5.686189e-05   9.4285714    
     62900   0.00049282098  0              3.4169385e-05  2.5655648e-05  6.2726495e-05  9.4285714    
     63000   0.00048572981  0              2.2415807e-05  3.0454484e-05  6.9931482e-05  9.4285714    
     63100   0.00048503597  0              2.0711857e-05  2.4803488e-05  6.0398964e-05  9.4285714    
     63200   0.00048736674  0              2.6715094e-05  2.4610161e-05  5.3406159e-05  9.4285714    
     63300   0.000495187    0              1.7302806e-05  2.9173052e-05  6.0607802e-05  9.4285714    
     63400   0.00049057     0              2.4793546e-05  2.2947412e-05  6.3932937e-05  9.4285714    
     63500   0.00049454241  0              2.7460546e-05  2.295346e-05   6.236266e-05   9.4285714    
     63600   0.00050750934  0              1.8870306e-05  2.1796594e-05  5.1992068e-05  9.4285714    
     63700   0.00050223819  0              2.3354837e-05  2.6101961e-05  5.555683e-05   9.4285714    
     63800   0.00049825851  0              2.4450955e-05  2.5205531e-05  5.9007169e-05  9.4285714    
     63900   0.00050446329  0              2.9018575e-05  1.8664962e-05  5.8195442e-05  9.4285714    
     64000   0.00050123425  0              2.5293131e-05  2.6077288e-05  6.7028726e-05  9.4285714    
     64100   0.00049398396  0              2.0032697e-05  1.9407169e-05  6.3194814e-05  9.4285714    
     64200   0.00048958916  0              2.8155148e-05  1.5927368e-05  6.0175096e-05  9.4285714    
     64300   0.00049084865  0              3.9751773e-05  2.4517852e-05  6.0313962e-05  9.4285714    
     64400   0.00048910757  0              4.4735032e-05  1.5405562e-05  5.3540443e-05  9.4285714    
     64500   0.00048471727  0              3.5535228e-05  1.6802982e-05  6.0214621e-05  9.4285714    
     64600   0.00047890045  0              2.7671036e-05  2.5143761e-05  6.0460667e-05  9.4285714    
     64700   0.00048854524  0              2.4772991e-05  2.2127364e-05  5.2755828e-05  9.4285714    
     64800   0.00049397887  0              2.6143367e-05  3.0107165e-05  5.5672921e-05  9.4285714    
     64900   0.00048156538  0              2.7324051e-05  2.7397209e-05  6.2207257e-05  9.4285714    
     65000   0.00046910086  0              2.3107446e-05  2.1342305e-05  5.9462521e-05  9.4285714    
     65100   0.00047018569  0              2.8373353e-05  2.5607705e-05  6.0074709e-05  9.4285714    
     65200   0.00046171565  0              3.4532098e-05  2.6330991e-05  6.3506249e-05  9.4285714    
     65300   0.00045355106  0              4.0659619e-05  3.9365784e-05  6.5750756e-05  9.4285714    
     65400   0.0004513268   0              3.8718945e-05  3.7824685e-05  6.3873217e-05  9.4285714    
     65500   0.00045328094  0              3.3417102e-05  2.8215995e-05  6.5933345e-05  9.4285714    
     65600   0.00045594277  0              2.5411307e-05  3.5413971e-05  6.7042626e-05  9.4285714    
     65700   0.00044893271  0              2.7761122e-05  3.0781129e-05  6.674899e-05   9.4285714    
     65800   0.00043673665  0              3.137767e-05   2.7133886e-05  6.9153693e-05  9.4285714    
     65900   0.00044417684  0              3.2415712e-05  3.0361507e-05  6.9191067e-05  9.4285714    
     66000   0.00043734522  0              4.0325917e-05  3.1024803e-05  6.6938523e-05  9.4285714    
     66100   0.00042196243  0              3.2753785e-05  3.2032259e-05  7.3193885e-05  9.4285714    
     66200   0.00041973452  0              4.0164148e-05  2.8338884e-05  8.1948511e-05  9.4285714    
     66300   0.00041436701  0              6.2963257e-05  2.9034625e-05  7.9302556e-05  9.4285714    
     66400   0.0003941513   0              4.5872689e-05  3.7807303e-05  8.1728593e-05  9.4285714    
     66500   0.0003836529   0              5.6445215e-05  4.2270969e-05  8.2747199e-05  9.4285714    
     66600   0.00038465213  0              5.3263887e-05  3.9719425e-05  7.9149461e-05  9.4285714    
     66700   0.00038894992  0              4.20255e-05    4.566467e-05   7.8879149e-05  9.4285714    
     66800   0.00036070492  0              5.566745e-05   5.7759724e-05  8.9987504e-05  9.4285714    
     66900   0.00034297457  0              5.3259574e-05  6.8869365e-05  9.177822e-05   9.4285714    
     67000   0.00035071188  0              4.8313416e-05  6.0559453e-05  8.5500562e-05  9.4285714    
     67100   0.00035503575  0              3.097501e-05   4.3472679e-05  7.9626917e-05  9.4285714    
     67200   0.00034128431  0              3.4720585e-05  4.816892e-05   7.8514087e-05  9.4285714    
     67300   0.00031836785  0              4.5282712e-05  5.2691067e-05  7.7424489e-05  9.4285714    
     67400   0.00030663661  0              3.5113049e-05  4.9635601e-05  7.4666973e-05  9.4285714    
     67500   0.00029481791  0              3.9138377e-05  5.1053527e-05  7.2565942e-05  9.4285714    
     67600   0.00028910904  0              4.9257505e-05  5.6455991e-05  7.5528344e-05  9.4285714    
     67700   0.00027183249  0              5.505267e-05   5.4725918e-05  7.5520601e-05  9.4285714    
     67800   0.00025778954  0              5.5325298e-05  5.581733e-05   7.8035058e-05  9.4285714    
     67900   0.00024581296  0              4.8759439e-05  6.1088154e-05  8.1274762e-05  9.4285714    
     68000   0.00022556887  0              5.1728122e-05  5.3916307e-05  8.9568848e-05  9.4285714    
     68100   0.00022448115  0              5.0575203e-05  5.8938015e-05  8.6660799e-05  9.4285714    
     68200   0.0002316233   0              4.4277765e-05  5.6650457e-05  8.0759893e-05  9.4285714    
     68300   0.00022986293  0              4.3595152e-05  5.2689036e-05  8.3692076e-05  9.4285714    
     68400   0.00021976837  0              4.2832179e-05  5.7513019e-05  8.1198068e-05  9.4285714    
     68500   0.00018897003  0              4.677852e-05   5.1979086e-05  8.5959875e-05  9.4285714    
     68600   0.00014377952  0              4.7381465e-05  5.6949726e-05  9.151628e-05   9.4285714    
     68700   0.00014928898  0              4.2459064e-05  6.2648099e-05  8.1113559e-05  9.4285714    
     68800   0.00013847203  0              4.4769387e-05  4.5920285e-05  7.7943736e-05  9.4285714    
     68900   0.0001453686   0              4.7948908e-05  5.259867e-05   7.4055916e-05  9.4285714    
     69000   0.00014381237  0              4.3553764e-05  4.756036e-05   6.5598289e-05  9.4285714    
     69100   0.00013007965  0              4.6134105e-05  4.7607098e-05  6.1441724e-05  9.4285714    
     69200   0.00011982704  0              5.0774605e-05  5.3204128e-05  6.2701345e-05  9.4285714    
     69300   0.0001073918   0              5.1263139e-05  4.4305203e-05  6.3369506e-05  9.4285714    
     69400   0.00010300942  0              5.312369e-05   4.9407563e-05  6.2971639e-05  9.4285714    
     69500   0.00010143661  0              4.9484624e-05  4.0749275e-05  5.8373181e-05  9.4285714    
     69600   9.5766951e-05  0              5.3182235e-05  3.9451127e-05  5.2956094e-05  9.4285714    
     69700   9.405894e-05   0              5.0889773e-05  5.2300193e-05  5.180931e-05   9.4285714    
     69800   9.155205e-05   0              4.5530419e-05  4.4750489e-05  4.7063405e-05  9.4285714    
     69900   8.3575059e-05  0              5.1875899e-05  4.5141456e-05  4.4792127e-05  9.4285714    
     70000   8.0849168e-05  0              5.0510582e-05  4.2408643e-05  4.3239916e-05  9.4285714    
     70100   7.9858942e-05  0              4.8451567e-05  3.8982149e-05  4.1476956e-05  9.4285714    
     70200   7.8446618e-05  0              4.9559105e-05  4.6017946e-05  3.5209068e-05  9.4285714    
     70300   7.6228967e-05  0              4.7433543e-05  4.3268345e-05  2.7621423e-05  9.4285714    
     70400   7.5535961e-05  0              4.7847776e-05  4.0413247e-05  2.6006838e-05  9.4285714    
     70500   7.2914033e-05  0              4.3404817e-05  3.9523798e-05  2.4762482e-05  9.4285714    
     70600   7.001623e-05   0              3.9124987e-05  3.5339131e-05  2.3946554e-05  9.4285714    
     70700   6.9345352e-05  0              3.8804511e-05  3.6473219e-05  2.3502972e-05  9.4285714    
     70800   6.7381899e-05  0              3.5778441e-05  3.276663e-05   2.1027252e-05  9.4285714    
     70900   6.673365e-05   0              3.5855151e-05  2.8077966e-05  2.0184825e-05  9.4285714    
     71000   6.4393975e-05  0              3.3009782e-05  2.7699989e-05  1.8237771e-05  9.4285714    
     71100   6.1555918e-05  0              2.8624835e-05  2.576401e-05   1.8960569e-05  9.4285714    
     71200   6.1429325e-05  0              3.0464999e-05  2.6188175e-05  2.0334819e-05  9.4285714    
     71300   5.8364826e-05  0              2.8291632e-05  2.3606625e-05  1.9246418e-05  9.4285714    
     71400   5.3846239e-05  0              2.6414313e-05  2.1759211e-05  2.1300148e-05  9.4285714    
     71500   5.3386791e-05  0              2.5737816e-05  2.6710408e-05  2.1834767e-05  9.4285714    
     71600   5.2112201e-05  0              2.1997188e-05  2.1884657e-05  1.9589075e-05  9.4285714    
     71700   4.916249e-05   0              2.2918375e-05  2.1297948e-05  2.0672761e-05  9.4285714    
     71800   4.8669983e-05  0              2.4730445e-05  2.4511543e-05  2.0440236e-05  9.4285714    
     71900   4.7395793e-05  0              2.3453111e-05  2.0652588e-05  1.9998911e-05  9.4285714    
     72000   4.4713447e-05  0              2.2119599e-05  2.2138141e-05  2.2079011e-05  9.4285714    
     72100   4.3022032e-05  0              1.8471121e-05  2.4818397e-05  1.9810872e-05  9.4285714    
     72200   4.1819469e-05  0              1.7361261e-05  2.3170878e-05  1.7396464e-05  9.4285714    
     72300   4.1569642e-05  0              1.7188696e-05  2.2677614e-05  1.7473342e-05  9.4285714    
     72400   4.1455667e-05  0              1.5934592e-05  1.8779856e-05  1.6337526e-05  9.4285714    
     72500   3.8515638e-05  0              1.7547874e-05  1.716531e-05   1.6885439e-05  9.4285714    
     72600   3.7079221e-05  0              1.6548905e-05  1.8511957e-05  1.6952109e-05  9.4285714    
     72700   3.7528089e-05  0              1.4246302e-05  1.5867495e-05  1.6161381e-05  9.4285714    
     72800   3.6049364e-05  0              1.8833776e-05  1.7179469e-05  1.5973306e-05  9.4285714    
     72900   3.4591506e-05  0              1.9956377e-05  1.8701776e-05  1.3709089e-05  9.4285714    
     73000   3.4970032e-05  0              1.8075313e-05  1.4532012e-05  1.2838392e-05  9.4285714    
     73100   3.327333e-05   0              2.0377402e-05  1.4746802e-05  1.3174848e-05  9.4285714    
     73200   3.0281514e-05  0              2.1176452e-05  1.6279637e-05  1.2969012e-05  9.4285714    
     73300   2.879307e-05   0              2.0115434e-05  1.8148456e-05  1.4477019e-05  9.4285714    
     73400   2.8447528e-05  0              1.9106581e-05  1.8624285e-05  1.6277835e-05  9.4285714    
     73500   2.8615374e-05  0              1.6724941e-05  1.6782518e-05  1.6898605e-05  9.4285714    
     73600   2.9026224e-05  0              1.6437383e-05  1.6260007e-05  1.6848848e-05  9.4285714    
     73700   2.7975895e-05  0              1.5671211e-05  1.7419391e-05  1.6924342e-05  9.4285714    
     73800   2.7350029e-05  0              1.4519367e-05  1.8731887e-05  1.8856029e-05  9.4285714    
     73900   2.7431161e-05  0              1.490756e-05   1.7069783e-05  1.9473746e-05  9.4285714    
     74000   2.5856587e-05  0              1.556091e-05   1.6738345e-05  1.988592e-05   9.4285714    
     74100   2.4029451e-05  0              1.8493847e-05  1.972869e-05   2.1803916e-05  9.4285714    
     74200   2.3269039e-05  0              2.0487994e-05  1.9033504e-05  2.2472082e-05  9.4285714    
     74300   2.3162218e-05  0              1.9277527e-05  1.697003e-05   2.2756976e-05  9.4285714    
     74400   2.3049943e-05  0              1.846898e-05   1.7752958e-05  2.4781843e-05  9.4285714    
     74500   2.2761406e-05  0              1.7509804e-05  1.8174651e-05  2.6663831e-05  9.4285714    
     74600   2.2252277e-05  0              1.6713289e-05  1.9523723e-05  2.7825587e-05  9.4285714    
     74700   2.1705652e-05  0              1.6875501e-05  2.1777677e-05  2.7519983e-05  9.4285714    
     74800   2.0873837e-05  0              1.7085358e-05  2.3229265e-05  2.6672146e-05  9.4285714    
     74900   1.9872481e-05  0              1.7027531e-05  2.1292304e-05  2.6803e-05     9.4285714    
     75000   1.9762066e-05  0              1.6216075e-05  1.8536763e-05  2.6939852e-05  9.4285714    
     75100   2.0098758e-05  0              1.6400035e-05  1.9019963e-05  2.6158196e-05  9.4285714    
[...]
     81700   1.2446125e-05  0              1.9644544e-05  2.2358194e-05  2.6749742e-05  9.4285714    
     81800   1.2163166e-05  0              1.9357956e-05  2.2110998e-05  2.7638592e-05  9.4285714    
     81900   1.2465826e-05  0              1.8922778e-05  2.189582e-05   2.7698008e-05  9.4285714    
     82000   1.2925088e-05  0              1.906024e-05   2.1498087e-05  2.7024139e-05  9.4285714    
     82100   1.2728333e-05  0              1.9243525e-05  2.0579426e-05  2.6809164e-05  9.4285714    
     82200   1.2335093e-05  0              1.963964e-05   2.0312761e-05  2.759139e-05   9.4285714    
     82300   1.1933277e-05  0              2.0641527e-05  2.0428921e-05  2.8218766e-05  9.4285714    
     82400   1.2009506e-05  0              2.0561735e-05  2.1040496e-05  2.795312e-05   9.4285714    
     82500   1.1733615e-05  0              1.9357593e-05  2.1527976e-05  2.7186852e-05  9.4285714    
     82600   1.1532561e-05  0              1.9923004e-05  2.0870361e-05  2.6440559e-05  9.4285714    
     82700   1.1827976e-05  0              2.0835067e-05  2.0670966e-05  2.5788333e-05  9.4285714    
     82800   1.184935e-05   0              2.1182444e-05  2.1182423e-05  2.6266551e-05  9.4285714    
     82900   1.1682778e-05  0              2.1813617e-05  2.2135635e-05  2.8436608e-05  9.4285714    
     83000   1.1619346e-05  0              2.1384423e-05  2.2752934e-05  2.950742e-05   9.4285714    
     83100   1.1016956e-05  0              2.0671019e-05  2.3277308e-05  3.064537e-05   9.4285714    
     83200   1.032127e-05   0              2.0124129e-05  2.3596651e-05  3.2160911e-05  9.4285714    
     83300   1.0127831e-05  0              1.9244913e-05  2.184731e-05   3.2859693e-05  9.4285714    
     83400   9.8386687e-06  0              1.9476381e-05  2.1605263e-05  3.4090261e-05  9.4285714    
     83500   9.1250766e-06  0              1.9883376e-05  2.2816311e-05  3.4043926e-05  9.4285714    
     83600   9.3232966e-06  0              1.9291021e-05  2.2085339e-05  3.1998949e-05  9.4285714    
     83700   9.6051945e-06  0              1.861147e-05   2.1797856e-05  3.024079e-05   9.4285714    
     83800   9.7047054e-06  0              1.8556585e-05  2.1529e-05     2.8842836e-05  9.4285714    
     83900   9.5519797e-06  0              1.9451371e-05  2.147397e-05   2.8218569e-05  9.4285714    
     84000   8.9765645e-06  0              2.1248852e-05  2.2900978e-05  2.8523886e-05  9.4285714    
     84100   8.8401475e-06  0              2.1813454e-05  2.3217945e-05  2.8203956e-05  9.4285714    
     84200   9.1081598e-06  0              2.0841493e-05  2.2640456e-05  2.8507967e-05  9.4285714    
     84300   9.133309e-06   0              2.0350405e-05  2.2313282e-05  2.9163429e-05  9.4285714    
     84400   9.0232336e-06  0              1.9869412e-05  2.1747862e-05  2.891624e-05   9.4285714    
     84500   9.0150135e-06  0              1.9669642e-05  2.1292995e-05  2.8884265e-05  9.4285714    
     84600   8.7504119e-06  0              1.9098291e-05  2.1117708e-05  2.9200315e-05  9.4285714    
     84700   7.7738787e-06  0              1.8566837e-05  2.1793757e-05  3.0190079e-05  9.4285714    
     84800   7.3443767e-06  0              1.8217822e-05  2.2484608e-05  2.9667101e-05  9.4285714    
     84900   7.6801643e-06  0              1.78525e-05    2.2877485e-05  2.832008e-05   9.4285714    
     85000   7.7195643e-06  0              1.800592e-05   2.3068248e-05  2.7915486e-05  9.4285714    
     85100   7.6499144e-06  0              1.8530442e-05  2.2898047e-05  2.8227078e-05  9.4285714    
     85200   7.32082e-06    0              1.9116444e-05  2.2906818e-05  2.7936188e-05  9.4285714    
     85300   7.1428279e-06  0              1.943214e-05   2.2867713e-05  2.7178667e-05  9.4285714    
     85400   6.9909138e-06  0              1.9200984e-05  2.28646e-05    2.6991324e-05  9.4285714    
     85500   6.884213e-06   0              1.9100717e-05  2.3013486e-05  2.6873435e-05  9.4285714    
     85600   6.7202361e-06  0              1.9526136e-05  2.3798531e-05  2.6888726e-05  9.4285714    
     85700   5.9758383e-06  0              2.045899e-05   2.4666306e-05  2.7257045e-05  9.4285714    
     85800   5.0096659e-06  0              2.0246158e-05  2.5355108e-05  2.8233262e-05  9.4285714    
     85900   4.5280067e-06  0              1.9707385e-05  2.5784389e-05  2.8855408e-05  9.4285714    
     86000   4.4772165e-06  0              1.921428e-05   2.5140915e-05  2.8714319e-05  9.4285714    
     86100   4.5351652e-06  0              1.924609e-05   2.4846555e-05  2.8007203e-05  9.4285714    
     86200   4.513446e-06   0              1.9920375e-05  2.4535727e-05  2.7780126e-05  9.4285714    
     86300   4.3055665e-06  0              2.0846388e-05  2.3758795e-05  2.7427779e-05  9.4285714    
     86400   4.2716968e-06  0              2.1353493e-05  2.3371464e-05  2.683057e-05   9.4285714    
     86500   4.2116921e-06  0              2.1134644e-05  2.3609037e-05  2.6799178e-05  9.4285714    
     86600   4.0128801e-06  0              2.1174e-05     2.3766447e-05  2.667212e-05   9.4285714    
     86700   4.1389561e-06  0              2.0750284e-05  2.3884837e-05  2.6517752e-05  9.4285714    
     86800   4.1881267e-06  0              1.9884415e-05  2.404381e-05   2.692584e-05   9.4285714    
     86900   3.9364494e-06  0              1.9517858e-05  2.3729685e-05  2.7122115e-05  9.4285714    
     87000   3.8839998e-06  0              1.9058007e-05  2.3177165e-05  2.7145809e-05  9.4285714    
     87100   3.853393e-06   0              1.9045357e-05  2.3041034e-05  2.7686016e-05  9.4285714    
     87200   3.6787772e-06  0              1.9355987e-05  2.3027685e-05  2.8072243e-05  9.4285714    
     87300   3.5766377e-06  0              1.9682253e-05  2.302215e-05   2.7817335e-05  9.4285714    
     87400   3.5075159e-06  0              1.989737e-05   2.3236677e-05  2.7298161e-05  9.4285714    
     87500   3.4900915e-06  0              1.9981654e-05  2.2924327e-05  2.6621041e-05  9.4285714    
     87600   3.5749174e-06  0              2.0142749e-05  2.2288497e-05  2.631543e-05   9.4285714    
     87700   3.545282e-06   0              2.00507e-05    2.1963235e-05  2.6240158e-05  9.4285714    
     87800   3.4612528e-06  0              1.9815216e-05  2.2121027e-05  2.6274717e-05  9.4285714    
     87900   3.4086212e-06  0              1.990072e-05   2.271949e-05   2.6730622e-05  9.4285714    
     88000   3.278284e-06   0              1.9650403e-05  2.3066277e-05  2.6973038e-05  9.4285714    
     88100   3.1997643e-06  0              1.919048e-05   2.3081334e-05  2.6947187e-05  9.4285714    
     88200   3.2624358e-06  0              1.8973985e-05  2.2906477e-05  2.6892086e-05  9.4285714    
     88300   3.3028659e-06  0              1.8752751e-05  2.266086e-05   2.6579262e-05  9.4285714    
     88400   3.2647999e-06  0              1.8770468e-05  2.2485793e-05  2.6586544e-05  9.4285714    
     88500   3.2137586e-06  0              1.9037269e-05  2.2328608e-05  2.6742029e-05  9.4285714    
     88600   3.2293896e-06  0              1.9222047e-05  2.2383294e-05  2.6620011e-05  9.4285714    
     88700   3.3400536e-06  0              1.888424e-05   2.2433025e-05  2.6490047e-05  9.4285714    
     88800   3.5028811e-06  0              1.823889e-05   2.2206966e-05  2.6031108e-05  9.4285714    
     88900   3.6626472e-06  0              1.7903656e-05  2.1911498e-05  2.5333618e-05  9.4285714    
     89000   3.7951908e-06  0              1.7988475e-05  2.1636822e-05  2.4914335e-05  9.4285714    
     89100   3.8810219e-06  0              1.8101467e-05  2.155905e-05   2.4596941e-05  9.4285714    
     89200   3.894077e-06   0              1.8336389e-05  2.1836116e-05  2.4575669e-05  9.4285714    
     89300   3.8931426e-06  0              1.8625676e-05  2.1981098e-05  2.4694483e-05  9.4285714    
     89400   3.8817963e-06  0              1.8971752e-05  2.1735872e-05  2.4588005e-05  9.4285714    
     89500   3.8639803e-06  0              1.9001381e-05  2.1209383e-05  2.4389848e-05  9.4285714    
     89600   3.9144586e-06  0              1.8747776e-05  2.0721312e-05  2.4222564e-05  9.4285714    
     89700   3.9129514e-06  0              1.8325344e-05  2.0471643e-05  2.4183077e-05  9.4285714    
     89800   3.7950695e-06  0              1.7998801e-05  2.0839569e-05  2.4353111e-05  9.4285714    
     89900   3.6663436e-06  0              1.7964905e-05  2.1624148e-05  2.4826112e-05  9.4285714    
     90000   3.5927353e-06  0              1.801633e-05   2.2048976e-05  2.4975196e-05  9.4285714    
     90100   3.6742798e-06  0              1.8129296e-05  2.2272958e-05  2.5014266e-05  9.4285714    
     90200   3.8196011e-06  0              1.8331029e-05  2.2181403e-05  2.4974527e-05  9.4285714    
     90300   3.8593906e-06  0              1.8550247e-05  2.2456259e-05  2.4906423e-05  9.4285714    
     90400   3.8238761e-06  0              1.8776214e-05  2.27429e-05    2.5362061e-05  9.4285714    
     90500   3.8375645e-06  0              1.8735064e-05  2.288521e-05   2.5931468e-05  9.4285714    
     90600   3.871899e-06   0              1.8598154e-05  2.342248e-05   2.6213633e-05  9.4285714    
     90700   3.8600363e-06  0              1.8556115e-05  2.353577e-05   2.6446203e-05  9.4285714    
     90800   3.8414152e-06  0              1.8554966e-05  2.3337777e-05  2.6580207e-05  9.4285714    
     90900   3.8154503e-06  0              1.890433e-05   2.2945653e-05  2.6879013e-05  9.4285714    
     91000   3.8511411e-06  0              1.9073005e-05  2.2336708e-05  2.7339501e-05  9.4285714    
     91100   3.9255325e-06  0              1.8914868e-05  2.2082842e-05  2.7574868e-05  9.4285714    
     91200   3.9297568e-06  0              1.8888208e-05  2.2010365e-05  2.7638604e-05  9.4285714    
     91300   3.9376913e-06  0              1.8874023e-05  2.2167459e-05  2.7740522e-05  9.4285714    
     91400   3.9192344e-06  0              1.9042767e-05  2.2717308e-05  2.7767191e-05  9.4285714    
     91500   3.8937727e-06  0              1.9634969e-05  2.3006426e-05  2.781538e-05   9.4285714    
     91600   3.921792e-06   0              1.9908826e-05  2.3188912e-05  2.7914222e-05  9.4285714    
     91700   3.8385848e-06  0              2.0213988e-05  2.344425e-05   2.8264386e-05  9.4285714    
     91800   3.6627259e-06  0              2.0497775e-05  2.3459994e-05  2.851886e-05   9.4285714    
     91900   3.5557229e-06  0              2.0136408e-05  2.3401237e-05  2.8798841e-05  9.4285714    
     92000   3.4183571e-06  0              2.0062255e-05  2.3649732e-05  2.9017732e-05  9.4285714    
     92100   3.286238e-06   0              2.02647e-05    2.3418325e-05  2.9155509e-05  9.4285714    
     92200   3.2252379e-06  0              2.0123472e-05  2.3636953e-05  2.9499923e-05  9.4285714    
     92300   3.2079641e-06  0              2.0275237e-05  2.3497334e-05  2.9647567e-05  9.4285714    
     92400   3.2259153e-06  0              2.0708703e-05  2.3099328e-05  2.9725269e-05  9.4285714    
     92500   3.3176983e-06  0              2.0438928e-05  2.3152393e-05  2.9592355e-05  9.4285714    
     92600   3.4754655e-06  0              2.0050115e-05  2.2662299e-05  2.9029002e-05  9.4285714    
     92700   3.5547985e-06  0              1.9798732e-05  2.2652731e-05  2.8413585e-05  9.4285714    
     92800   3.5217221e-06  0              1.988581e-05   2.3242446e-05  2.7864789e-05  9.4285714    
     92900   3.4830557e-06  0              2.0344291e-05  2.3437444e-05  2.7433339e-05  9.4285714    
     93000   3.5067848e-06  0              2.0026148e-05  2.3432841e-05  2.7260475e-05  9.4285714    
     93100   3.5613504e-06  0              1.9577789e-05  2.3350015e-05  2.7083996e-05  9.4285714    
     93200   3.5908192e-06  0              1.9144805e-05  2.2948321e-05  2.681918e-05   9.4285714    
     93300   3.6740418e-06  0              1.8487647e-05  2.2653173e-05  2.663755e-05   9.4285714    
     93400   3.7748516e-06  0              1.8488145e-05  2.2206179e-05  2.6480609e-05  9.4285714    
     93500   3.778067e-06   0              1.8380908e-05  2.1922993e-05  2.6390489e-05  9.4285714    
     93600   3.7950568e-06  0              1.8060505e-05  2.1818583e-05  2.6190461e-05  9.4285714    
     93700   3.902705e-06   0              1.8237874e-05  2.1387385e-05  2.580064e-05   9.4285714    
     93800   4.0019776e-06  0              1.8164284e-05  2.1231985e-05  2.5433884e-05  9.4285714    
     93900   4.058159e-06   0              1.8377519e-05  2.1116447e-05  2.5137932e-05  9.4285714    
     94000   4.1283039e-06  0              1.8691191e-05  2.0876996e-05  2.4948455e-05  9.4285714    
     94100   4.2352778e-06  0              1.8843744e-05  2.099217e-05   2.4821732e-05  9.4285714    
     94200   4.3082247e-06  0              1.9170735e-05  2.1187718e-05  2.4694007e-05  9.4285714    
     94300   4.357307e-06   0              1.9318899e-05  2.1165729e-05  2.4530933e-05  9.4285714    
     94400   4.4732817e-06  0              1.9379988e-05  2.1186172e-05  2.4309742e-05  9.4285714    
     94500   4.6143854e-06  0              1.9558025e-05  2.1010424e-05  2.4038303e-05  9.4285714    
     94600   4.739653e-06   0              1.9432883e-05  2.0885805e-05  2.3708797e-05  9.4285714    
     94700   4.8269276e-06  0              1.9225637e-05  2.0882097e-05  2.3615952e-05  9.4285714    
     94800   4.857571e-06   0              1.8648603e-05  2.0623127e-05  2.3843756e-05  9.4285714    
     94900   4.8387125e-06  0              1.7910494e-05  2.0653984e-05  2.4297454e-05  9.4285714    
     95000   4.7464338e-06  0              1.7524663e-05  2.1137372e-05  2.487821e-05   9.4285714    
     95100   4.4415589e-06  0              1.7540549e-05  2.1418891e-05  2.5499867e-05  9.4285714    
     95200   4.0268314e-06  0              1.7679307e-05  2.1403088e-05  2.5993178e-05  9.4285714    
     95300   3.7118025e-06  0              1.7925499e-05  2.1371139e-05  2.6377462e-05  9.4285714    
     95400   3.5288195e-06  0              1.8250412e-05  2.1387355e-05  2.6738319e-05  9.4285714    
     95500   3.4810828e-06  0              1.86484e-05    2.1399182e-05  2.7164649e-05  9.4285714    
     95600   3.5067551e-06  0              1.8915884e-05  2.1279427e-05  2.7470424e-05  9.4285714    
     95700   3.5278226e-06  0              1.9125631e-05  2.1219557e-05  2.7511986e-05  9.4285714    
     95800   3.5358542e-06  0              1.950961e-05   2.137663e-05   2.7601212e-05  9.4285714    
     95900   3.4501042e-06  0              1.9911824e-05  2.1777137e-05  2.7767027e-05  9.4285714    
     96000   3.331983e-06   0              1.9929882e-05  2.1659572e-05  2.7990694e-05  9.4285714    
     96100   3.2445136e-06  0              1.9787703e-05  2.1336326e-05  2.8200624e-05  9.4285714    
     96200   3.2599723e-06  0              1.9512823e-05  2.1402652e-05  2.8362702e-05  9.4285714    
     96300   3.3524759e-06  0              1.938361e-05   2.1219971e-05  2.8324964e-05  9.4285714    
     96400   3.4049862e-06  0              1.9566809e-05  2.1188455e-05  2.8344235e-05  9.4285714    
     96500   3.4560149e-06  0              1.9931983e-05  2.146743e-05   2.8486867e-05  9.4285714    
     96600   3.5377003e-06  0              2.0127624e-05  2.1453131e-05  2.8502924e-05  9.4285714    
     96700   3.5789688e-06  0              2.0205767e-05  2.1634778e-05  2.8535866e-05  9.4285714    
     96800   3.6009525e-06  0              2.0265564e-05  2.2163095e-05  2.8519643e-05  9.4285714    
     96900   3.6398358e-06  0              2.0186048e-05  2.2344187e-05  2.8242524e-05  9.4285714    
     97000   3.6926637e-06  0              2.0170213e-05  2.2358775e-05  2.7911553e-05  9.4285714    
     97100   3.7577286e-06  0              1.9995042e-05  2.2293935e-05  2.7592964e-05  9.4285714    
     97200   3.7951338e-06  0              1.972518e-05   2.2500533e-05  2.7324564e-05  9.4285714    
     97300   3.7915088e-06  0              1.9577123e-05  2.3151642e-05  2.7299762e-05  9.4285714    
     97400   3.7485224e-06  0              1.9324456e-05  2.30806e-05    2.7089915e-05  9.4285714    
     97500   3.7004488e-06  0              1.9219566e-05  2.2917658e-05  2.6888759e-05  9.4285714    
     97600   3.5146189e-06  0              1.9216453e-05  2.3350177e-05  2.6561724e-05  9.4285714    
     97700   3.2092658e-06  0              1.9210005e-05  2.3618954e-05  2.6020575e-05  9.4285714    
     97800   3.0741264e-06  0              1.8785442e-05  2.3901093e-05  2.5609259e-05  9.4285714    
     97900   3.2689032e-06  0              1.8332069e-05  2.3813462e-05  2.5281581e-05  9.4285714    
     98000   3.4879184e-06  0              1.7639391e-05  2.3233496e-05  2.5115654e-05  9.4285714    
     98100   3.0702391e-06  0              1.7345936e-05  2.36305e-05    2.524874e-05   9.4285714    
     98200   2.9214268e-06  0              1.7751691e-05  2.3810696e-05  2.5038638e-05  9.4285714    
     98300   2.9373287e-06  0              1.7414606e-05  2.3325178e-05  2.4758312e-05  9.4285714    
     98400   2.879615e-06   0              1.8218541e-05  2.3403674e-05  2.4845847e-05  9.4285714    
     98500   2.848204e-06   0              1.9008342e-05  2.3138169e-05  2.481977e-05   9.4285714    
     98600   2.7263423e-06  0              1.8559461e-05  2.2912112e-05  2.4778725e-05  9.4285714    
     98700   2.6065427e-06  0              1.8899571e-05  2.2936881e-05  2.4788275e-05  9.4285714    
     98800   2.4965223e-06  0              1.812463e-05   2.2777276e-05  2.4817472e-05  9.4285714    
     98900   2.5312476e-06  0              1.7188063e-05  2.2549286e-05  2.4758508e-05  9.4285714    
     99000   2.6511883e-06  0              1.7634415e-05  2.2369995e-05  2.4688578e-05  9.4285714    
     99100   2.7173422e-06  0              1.7730299e-05  2.1958527e-05  2.4725265e-05  9.4285714    
     99200   2.7416008e-06  0              1.7354475e-05  2.1383708e-05  2.4972238e-05  9.4285714    
     99300   2.7403492e-06  0              1.7710033e-05  2.0999817e-05  2.5194177e-05  9.4285714    
     99400   2.6759704e-06  0              1.7805932e-05  2.0887012e-05  2.5239724e-05  9.4285714    
     99500   2.7350974e-06  0              1.7591419e-05  2.1055636e-05  2.5010401e-05  9.4285714    
     99600   2.8807532e-06  0              1.7598054e-05  2.1135294e-05  2.4759587e-05  9.4285714    
     99700   2.9230897e-06  0              1.7610982e-05  2.1212426e-05  2.4583469e-05  9.4285714    
     99800   2.9159336e-06  0              1.7740095e-05  2.1476279e-05  2.4546909e-05  9.4285714    
     99900   2.8532894e-06  0              1.7977152e-05  2.14971e-05    2.4856973e-05  9.4285714    
    100000   2.7133352e-06  0              1.8003971e-05  2.1327905e-05  2.5243646e-05  9.4285714    
Loop time of 183.342 on 4 procs for 100000 steps with 2520 atoms

Performance: 2356254.720 tau/day, 545.429 timesteps/s, 1.374 Matom-step/s
99.8% CPU use with 4 MPI tasks x no OpenMP threads

MPI task timing breakdown:
Section |  min time  |  avg time  |  max time  |%varavg| %total
---------------------------------------------------------------
Pair    | 0.025623   | 1.0356     | 3.8189     | 158.0 |  0.56
Bond    | 2.5126     | 46.913     | 155.81     | 920.8 | 25.59
Neigh   | 2.6046     | 2.623      | 2.6318     |   0.7 |  1.43
Comm    | 2.0083     | 41.613     | 149.8      | 970.4 | 22.70
Output  | 0.12287    | 0.90946    | 1.6958     |  80.6 |  0.50
Modify  | 0.52882    | 5.0973     | 16.247     | 286.1 |  2.78
Other   |            | 85.15      |            |       | 46.44

Nlocal:            630 ave        2514 max           0 min
Histogram: 3 0 0 0 0 0 0 0 0 1
Nghost:          49.75 ave         193 max           0 min
Histogram: 3 0 0 0 0 0 0 0 0 1
Neighs:           2476 ave        9897 max           0 min
Histogram: 3 0 0 0 0 0 0 0 0 1

Total # of neighbors = 9904
Ave neighs/atom = 3.9301587
Ave special neighs/atom = 36.31746
Neighbor list builds = 4880
Dangerous builds = 0
Total wall time: 0:03:03
