LAMMPS (4 Feb 2025 - Development - patch_4Feb2025-344-g0a4a2f6deb-modified)
Processor partition = 3
  using 1 OpenMP thread(s) per MPI task
# Units and dimensions
units        electron
dimension    3
boundary     p p p
atom_style   atomic
atom_modify  map yes
pair_style   none

# Time step (in femtoseconds)
timestep     0.5

# Temperature (in Kelvin)
variable     Temp equal 17.4

# Force constant (in Hartree energies per Bohr radius squared)
variable     k equal 1.2154614120000001e-08

# Number of beads
variable     Nbeads equal 4
variable     ibead uloop ${Nbeads} pad
variable     ibead uloop 4 pad
variable     seed equal 18889

# Create box and atoms. All distances are in Bohr
region       box block -1500 1500 -1500 1500 -1500 1500
create_box   1 box
Created orthogonal box = (-1500 -1500 -1500) to (1500 1500 1500)
  1 by 1 by 1 MPI processor grid
variable     a loop 3
label        loop
variable     x1 equal -15.0+0.5*v_a
variable     y1 equal 10.0-0.5*v_a
variable     z1 equal 1+0.5*v_a
create_atoms 1 single ${x1} ${y1} ${z1}
create_atoms 1 single -14.5 ${y1} ${z1}
create_atoms 1 single -14.5 9.5 ${z1}
create_atoms 1 single -14.5 9.5 1.5
Created 1 atoms
  using lattice units in orthogonal box = (-1500 -1500 -1500) to (1500 1500 1500)
  create_atoms CPU = 0.000 seconds
next         a
jump         SELF loop
variable     x1 equal -15.0+0.5*v_a
variable     y1 equal 10.0-0.5*v_a
variable     z1 equal 1+0.5*v_a
create_atoms 1 single ${x1} ${y1} ${z1}
create_atoms 1 single -14 ${y1} ${z1}
create_atoms 1 single -14 9 ${z1}
create_atoms 1 single -14 9 2
Created 1 atoms
  using lattice units in orthogonal box = (-1500 -1500 -1500) to (1500 1500 1500)
  create_atoms CPU = 0.000 seconds
next         a
jump         SELF loop
variable     x1 equal -15.0+0.5*v_a
variable     y1 equal 10.0-0.5*v_a
variable     z1 equal 1+0.5*v_a
create_atoms 1 single ${x1} ${y1} ${z1}
create_atoms 1 single -13.5 ${y1} ${z1}
create_atoms 1 single -13.5 8.5 ${z1}
create_atoms 1 single -13.5 8.5 2.5
Created 1 atoms
  using lattice units in orthogonal box = (-1500 -1500 -1500) to (1500 1500 1500)
  create_atoms CPU = 0.000 seconds
next         a
jump         SELF loop

# Electron mass (in amu)
mass         1 0.00054858

# Initialize velocities
velocity     all create ${Temp} ${seed}${ibead} mom yes rot yes dist gaussian
velocity     all create 17.4 ${seed}${ibead} mom yes rot yes dist gaussian
velocity     all create 17.4 18889${ibead} mom yes rot yes dist gaussian
velocity     all create 17.4 188894 mom yes rot yes dist gaussian

# Add harmonic external force
fix          harm all spring/self ${k}
fix          harm all spring/self 1.215461412e-08

# Add harmonic potential energy to total energy and potential energy
fix_modify   harm energy yes

# PIMD command
fix          pimdb all pimd/langevin/bosonic ensemble nvt temp ${Temp} thermostat PILE_L 12345 tau 50 fixcom no
fix          pimdb all pimd/langevin/bosonic ensemble nvt temp 17.4 thermostat PILE_L 12345 tau 50 fixcom no

# Outputs
variable prim_kinetic  equal f_pimdb[5]
variable virial        equal f_pimdb[6]

thermo_style custom step pe v_virial v_prim_kinetic
thermo          1

run             100
WARNING: No pairwise cutoff or binsize set. Atom sorting therefore disabled. (src/atom.cpp:2444)
WARNING: Communication cutoff is 0.0. No ghost atoms will be generated. Atoms may get lost. (src/comm_brick.cpp:212)
Per MPI rank memory allocation (min/avg/max) = 2.801 | 2.801 | 2.801 Mbytes
   Step         PotEng        v_virial    v_prim_kinetic
         0   0              1.3661449e-08  0.0009918329 
         1   8.448696e-10   1.8742641e-09  0.00099182267
         2   3.5286528e-09  7.1801177e-09  0.00099180053
         3   8.2936659e-09  1.4372388e-08  0.00099176038
         4   1.4586045e-08  3.1274072e-08  0.00099170266
         5   2.4161875e-08  5.2470231e-08  0.00099162511
         6   3.8801085e-08  7.2301291e-08  0.00099153   
         7   5.9758384e-08  9.5440683e-08  0.00099141194
         8   8.5838823e-08  1.1669162e-07  0.00099127168
         9   1.1684437e-07  1.3551097e-07  0.00099109846
        10   1.4954974e-07  1.6050328e-07  0.00099089759
        11   1.8686687e-07  1.8645705e-07  0.0009906735 
        12   2.2747543e-07  2.1181418e-07  0.00099042271
        13   2.807392e-07   2.4218941e-07  0.00099012073
        14   3.3827867e-07  2.7507982e-07  0.00098977876
        15   3.9918359e-07  3.1771012e-07  0.00098940169
        16   4.6034561e-07  3.6075963e-07  0.00098900826
        17   5.2315136e-07  4.0059005e-07  0.00098859985
        18   5.8457073e-07  4.3883585e-07  0.00098817535
        19   6.5273892e-07  4.8036287e-07  0.00098770764
        20   7.2150647e-07  5.2362451e-07  0.00098721266
        21   8.0596691e-07  5.7705077e-07  0.00098670407
        22   8.946994e-07   6.3271105e-07  0.00098617081
        23   9.9120142e-07  6.9382916e-07  0.00098557406
        24   1.09722e-06    7.5979853e-07  0.0009849612 
        25   1.2053692e-06  8.232213e-07   0.00098434971
        26   1.3196547e-06  8.9901705e-07  0.0009836645 
        27   1.4380033e-06  9.7033126e-07  0.0009830068 
        28   1.5700587e-06  1.0444697e-06  0.00098229311
        29   1.7089133e-06  1.1208219e-06  0.00098150213
        30   1.839944e-06   1.1899315e-06  0.00098077686
        31   1.9718088e-06  1.2560026e-06  0.00098003518
        32   2.1244847e-06  1.3287355e-06  0.00097921099
        33   2.2823018e-06  1.399856e-06   0.0009784037 
        34   2.4607034e-06  1.4769272e-06  0.00097754491
        35   2.6410061e-06  1.5642459e-06  0.00097667479
        36   2.8395019e-06  1.6571388e-06  0.00097572641
        37   3.0476467e-06  1.7603492e-06  0.00097475881
        38   3.2661567e-06  1.8666516e-06  0.00097373763
        39   3.4857766e-06  1.9696572e-06  0.0009727081 
        40   3.7310241e-06  2.0910539e-06  0.00097155807
        41   3.9947356e-06  2.2198868e-06  0.00097030871
        42   4.2722057e-06  2.3576614e-06  0.00096896762
        43   4.5444932e-06  2.496284e-06   0.00096760456
        44   4.8307956e-06  2.637657e-06   0.00096619083
        45   5.1356773e-06  2.795845e-06   0.00096470693
        46   5.4835294e-06  2.9727162e-06  0.00096303835
        47   5.8235502e-06  3.1451673e-06  0.00096140406
        48   6.1541132e-06  3.3241907e-06  0.00095971129
        49   6.4796693e-06  3.5094834e-06  0.00095790964
        50   6.8009213e-06  3.7049195e-06  0.00095603039
        51   7.1253629e-06  3.9139587e-06  0.0009540918 
        52   7.4712081e-06  4.1289537e-06  0.0009520767 
        53   7.8322309e-06  4.3481079e-06  0.00095003676
        54   8.1941694e-06  4.5702968e-06  0.00094802906
        55   8.579188e-06   4.7928135e-06  0.00094600351
        56   8.9656493e-06  5.0253448e-06  0.0009438419 
        57   9.351102e-06   5.2569331e-06  0.00094169256
        58   9.7645407e-06  5.4997767e-06  0.00093948055
        59   1.0230434e-05  5.7547729e-06  0.00093714003
        60   1.0724041e-05  6.0074589e-06  0.00093480857
        61   1.1207453e-05  6.2647899e-06  0.00093244785
        62   1.171285e-05   6.5384938e-06  0.00092998209
        63   1.221299e-05   6.8124372e-06  0.00092751453
        64   1.2743686e-05  7.0913777e-06  0.00092505171
        65   1.3295725e-05  7.3773956e-06  0.00092256944
        66   1.3906023e-05  7.6811232e-06  0.00091984092
        67   1.4511348e-05  7.9951107e-06  0.0009170037 
        68   1.5116776e-05  8.3096758e-06  0.00091414977
        69   1.571005e-05   8.6232285e-06  0.00091137219
        70   1.6297136e-05  8.9388929e-06  0.00090857909
        71   1.6849099e-05  9.2524846e-06  0.00090583473
        72   1.7417168e-05  9.5688611e-06  0.00090308342
        73   1.7971613e-05  9.8873586e-06  0.00090026584
        74   1.8509472e-05  1.0203245e-05  0.00089755256
        75   1.9047825e-05  1.0523755e-05  0.00089485804
        76   1.9510646e-05  1.0848398e-05  0.00089217189
        77   1.9903304e-05  1.1164286e-05  0.00088956967
        78   2.0300948e-05  1.1466652e-05  0.00088700311
        79   2.0696905e-05  1.177381e-05   0.00088439373
        80   2.1058218e-05  1.2059606e-05  0.00088199635
        81   2.139726e-05   1.233837e-05   0.0008797438 
        82   2.1755155e-05  1.261531e-05   0.00087745162
        83   2.2051018e-05  1.2899972e-05  0.00087506863
        84   2.2294567e-05  1.3160246e-05  0.00087288444
        85   2.2559076e-05  1.3438712e-05  0.00087052617
        86   2.2815918e-05  1.372546e-05   0.00086818634
        87   2.3062616e-05  1.4017631e-05  0.00086572407
        88   2.3324206e-05  1.4328439e-05  0.000862992  
        89   2.3559323e-05  1.4640964e-05  0.00086017364
        90   2.3792776e-05  1.4978644e-05  0.0008570595 
        91   2.3990667e-05  1.5307214e-05  0.00085411601
        92   2.4198637e-05  1.5649328e-05  0.00085112325
        93   2.4419398e-05  1.6015833e-05  0.0008479391 
        94   2.4625252e-05  1.6393131e-05  0.00084474237
        95   2.4816363e-05  1.674573e-05   0.00084165639
        96   2.4982897e-05  1.7094435e-05  0.00083858996
        97   2.5153682e-05  1.7451741e-05  0.00083536142
        98   2.5288512e-05  1.780703e-05   0.00083221292
        99   2.5384836e-05  1.8141862e-05  0.00082913227
       100   2.5401412e-05  1.8457846e-05  0.00082619877
Loop time of 0.00116067 on 1 procs for 100 steps with 3 atoms

Performance: 3721997782.310 fs/day, 0.000 hours/fs, 86157.356 timesteps/s, 258.472 katom-step/s
88.3% CPU use with 1 MPI tasks x 1 OpenMP threads

MPI task timing breakdown:
Section |  min time  |  avg time  |  max time  |%varavg| %total
---------------------------------------------------------------
Pair    | 0          | 0          | 0          |   0.0 |  0.00
Neigh   | 1.441e-06  | 1.441e-06  | 1.441e-06  |   0.0 |  0.12
Comm    | 1.2111e-05 | 1.2111e-05 | 1.2111e-05 |   0.0 |  1.04
Output  | 0.00018148 | 0.00018148 | 0.00018148 |   0.0 | 15.64
Modify  | 0.0009054  | 0.0009054  | 0.0009054  |   0.0 | 78.01
Other   |            | 6.023e-05  |            |       |  5.19

Nlocal:              3 ave           3 max           3 min
Histogram: 1 0 0 0 0 0 0 0 0 0
Nghost:              0 ave           0 max           0 min
Histogram: 1 0 0 0 0 0 0 0 0 0
Neighs:              0 ave           0 max           0 min
Histogram: 1 0 0 0 0 0 0 0 0 0

Total # of neighbors = 0
Ave neighs/atom = 0
Neighbor list builds = 42
Dangerous builds = 0
Total wall time: 0:00:00
