LAMMPS (4 Feb 2025 - Development - patch_4Feb2025-344-g0a4a2f6deb-modified)
Running on 4 partitions of processors
