LAMMPS (19 Nov 2024 - Development - patch_19Nov2024-836-ge548c656ce)
OMP_NUM_THREADS environment is not set. Defaulting to 1 thread. (src/comm.cpp:99)
  using 1 OpenMP thread(s) per MPI task

# Created 2010-12-13

# General parameters

variable	sname index C2H6fc.ang

units		real
newton		on
boundary	f f f

atom_style      electron

read_data       data.${sname}
read_data       data.C2H6fc.ang
Reading data file ...
  orthogonal box = (-529.17725 -529.17725 -529.17725) to (529.17725 529.17725 529.17725)
  2 by 1 by 2 MPI processor grid
  reading atoms ...
  22 atoms
  read_data CPU = 0.001 seconds

pair_style      eff/cut 529.177249
pair_coeff      * *

compute         energies all pair eff/cut
variable        eke equal c_energies[1]
variable        epauli equal c_energies[2]
variable        estatics equal c_energies[3]
variable        errestrain equal c_energies[4]

comm_modify	vel yes

compute         peratom all stress/atom NULL
compute         p all reduce sum c_peratom[1] c_peratom[2] c_peratom[3]
variable        press equal -(c_p[1]+c_p[2]+c_p[3])/(3*vol)

compute         effTemp all temp/eff
compute         effPress all pressure effTemp

thermo		100
thermo_style    custom step etotal pe ke v_eke v_epauli v_estatics v_errestrain temp press v_press
thermo_modify   temp effTemp press effPress

# Minimization

min_style       cg
dump            1 all xyz 100 ${sname}.min.xyz
dump            1 all xyz 100 C2H6fc.ang.min.xyz
compute         1 all property/atom spin eradius erforce
dump            2 all custom 100 ${sname}.min.lammpstrj id type q c_1[1] c_1[2] x y z fx fy fz c_1[3]
dump            2 all custom 100 C2H6fc.ang.min.lammpstrj id type q c_1[1] c_1[2] x y z fx fy fz c_1[3]
dump            3 all custom 100 data.${sname}.restart id type q c_1[1] c_1[2] x y z
dump            3 all custom 100 data.C2H6fc.ang.restart id type q c_1[1] c_1[2] x y z
min_modify      line quadratic
minimize        0 1e-6 1000 2000

CITE-CITE-CITE-CITE-CITE-CITE-CITE-CITE-CITE-CITE-CITE-CITE-CITE

Your simulation uses code contributions which should be cited:
- EFF package: doi:10.1002/jcc.21637
CITE-CITE-CITE-CITE-CITE-CITE-CITE-CITE-CITE-CITE-CITE-CITE-CITE

Generated 0 of 3 mixed pair_coeff terms from geometric mixing rule
Neighbor list info ...
  update: every = 1 steps, delay = 0 steps, check = yes
  max neighbors/atom: 2000, page size: 100000
  master list distance cutoff = 531.17725
  ghost atom cutoff = 531.17725
  binsize = 265.58862, bins = 4 4 4
  1 neighbor lists, perpetual/occasional/extra = 1 0 0
  (1) pair eff/cut, perpetual
      attributes: half, newton on
      pair build: half/bin/atomonly/newton
      stencil: half/bin/3d
      bin: standard
Per MPI rank memory allocation (min/avg/max) = 6.129 | 6.129 | 6.129 Mbytes
   Step         TotEng         PotEng         KinEng         v_eke         v_epauli      v_estatics    v_errestrain       Temp          Press         v_press    
         0  -42170.096     -42170.096      0              40905.668      1266.6656     -84342.43       0              0              0.00015006376  0.00015006376
        63  -42170.131     -42170.131      0              40904.925      1264.1249     -84339.181      0              0              1.3303488e-11  1.3303488e-11
Loop time of 0.0027885 on 4 procs for 63 steps with 22 atoms

100.0% CPU use with 4 MPI tasks x 1 OpenMP threads

Minimization stats:
  Stopping criterion = force tolerance
  Energy initial, next-to-last, final = 
     -42170.0963215202   -42170.130962762   -42170.130962762
  Force two-norm initial, final = 11.287758 4.0839932e-07
  Force max component initial, final = 7.4454037 1.4098828e-07
  Final line search alpha, max atom move = 1 1.4098828e-07
  Iterations, force evaluations = 63 126

MPI task timing breakdown:
Section |  min time  |  avg time  |  max time  |%varavg| %total
---------------------------------------------------------------
Pair    | 0.00016071 | 0.00090768 | 0.0013576  |   0.0 | 32.55
Neigh   | 0          | 0          | 0          |   0.0 |  0.00
Comm    | 0.00060626 | 0.0010874  | 0.0018395  |   1.5 | 39.00
Output  | 0          | 0          | 0          |   0.0 |  0.00
Modify  | 0          | 0          | 0          |   0.0 |  0.00
Other   |            | 0.0007934  |            |       | 28.45

Nlocal:            5.5 ave           9 max           3 min
Histogram: 1 1 0 0 0 1 0 0 0 1
Nghost:           16.5 ave          19 max          13 min
Histogram: 1 0 0 0 0 1 0 0 1 1
Neighs:          57.75 ave         102 max          12 min
Histogram: 1 0 0 0 1 1 0 0 0 1

Total # of neighbors = 231
Ave neighs/atom = 10.5
Neighbor list builds = 0
Dangerous builds = 0

undump		1
undump		2
undump          3

# Equilibrate at 5000K
velocity        all create 1.0 4928459 rot yes mom yes dist gaussian

timestep	0.001

fix             1 all nvt/eff temp 1.0 10000.0 1.0
dump            2 all custom 100 ${sname}.nvt.lammpstrj id type q c_1[1] c_1[2] x y z fx fy fz c_1[3]
dump            2 all custom 100 C2H6fc.ang.nvt.lammpstrj id type q c_1[1] c_1[2] x y z fx fy fz c_1[3]

run             100000
Generated 0 of 3 mixed pair_coeff terms from geometric mixing rule
Per MPI rank memory allocation (min/avg/max) = 5.738 | 5.738 | 5.738 Mbytes
   Step         TotEng         PotEng         KinEng         v_eke         v_epauli      v_estatics    v_errestrain       Temp          Press         v_press    
        63  -42170.068     -42170.131      0.062597011    40904.925      1264.1249     -84339.181      0              3              2.4137671e-06  2.4137671e-06
       100  -42170.067     -42170.103      0.036304024    40904.662      1264.0944     -84338.859      0              1.7398925      1.7626732e-06  1.5641802e-06
       200  -42170.067     -42170.106      0.038620361    40904.865      1264.2013     -84339.172      0              1.8509044      9.8835209e-06  9.8060413e-06
       300  -42170.066     -42170.104      0.037689794    40905.324      1264.1453     -84339.574      0              1.8063064     -2.7465113e-06 -2.8017469e-06
       400  -42170.065     -42170.106      0.040831878    40904.833      1264.2602     -84339.198      0              1.9568927      1.8058897e-05  1.802875e-05 
       500  -42170.061     -42170.106      0.045124125    40904.979      1263.9711     -84339.057      0              2.1626013     -1.291499e-05  -1.3009875e-05
       600  -42170.057     -42170.104      0.046744624    40904.876      1264.2833     -84339.263      0              2.2402647      2.1421469e-05  2.1339201e-05
       700  -42170.052     -42170.101      0.049440105    40905.514      1264.1392     -84339.754      0              2.3694473     -3.6172258e-06 -3.6851774e-06
       800  -42170.045     -42170.104      0.059182631    40904.95       1264.2644     -84339.318      0              2.8363637      1.9496065e-05  1.9326042e-05
       900  -42170.038     -42170.102      0.06361804     40904.897      1264.0658     -84339.065      0              3.0489334      1.9207287e-06  1.8362044e-06
      1000  -42170.031     -42170.105      0.074254806    40905.248      1264.1233     -84339.476      0              3.5587069      3.7288659e-06  3.6833987e-06
      1100  -42170.023     -42170.101      0.077561321    40905.391      1264.3363     -84339.828      0              3.7171737      2.2533654e-05  2.247425e-05 
      1200  -42170.014     -42170.1        0.085599928    40905.249      1264.1053     -84339.454      0              4.1024288      2.3481205e-06  2.0934928e-06
      1300  -42170.006     -42170.097      0.090897805    40904.645      1264.2301     -84338.972      0              4.3563328      2.7760815e-05  2.7375787e-05
      1400  -42170         -42170.092      0.091537156    40905.6        1264.0137     -84339.706      0              4.3869742     -9.9119931e-06 -1.0147404e-05
      1500  -42169.994     -42170.087      0.093494345    40905.479      1264.4155     -84339.981      0              4.4807736      3.1289401e-05  3.113351e-05 
      1600  -42169.987     -42170.082      0.095005971    40905.19       1264.111      -84339.383      0              4.5532192      6.9516277e-06  6.8966592e-06
      1700  -42169.978     -42170.08       0.10229567     40904.798      1264.0798     -84338.958      0              4.9025823      1.4102867e-05  1.3981173e-05
      1800  -42169.969     -42170.075      0.10587502     40905.51       1264.1811     -84339.766      0              5.0741251      1.1352675e-05  1.128496e-05 
      1900  -42169.958     -42170.067      0.10893814     40905.866      1264.216      -84340.149      0              5.2209268      6.6649453e-06  6.5355008e-06
      2000  -42169.945     -42170.058      0.11284469     40904.704      1264.2692     -84339.031      0              5.4081509      3.5058118e-05  3.4777488e-05
      2100  -42169.931     -42170.051      0.11997723     40905.026      1263.8719     -84338.948      0              5.7499822     -7.7119649e-06 -8.1751745e-06
      2200  -42169.915     -42170.036      0.12056916     40905.419      1264.3997     -84339.854      0              5.7783505      3.5493794e-05  3.4848961e-05
      2300  -42169.903     -42170.032      0.12914393     40905.991      1264.0986     -84340.121      0              6.1893018     -6.0649853e-06 -6.4203425e-06
      2400  -42169.888     -42170.02       0.13128414     40904.442      1264.1521     -84338.614      0              6.2918729      3.0914687e-05  3.0781922e-05
      2500  -42169.872     -42170.02       0.1481609      40904.777      1263.8771     -84338.674      0              7.1007016      2.8177772e-07  2.2387679e-07
      2600  -42169.852     -42170.016      0.16348579     40905.878      1264.1394     -84340.034      0              7.8351566      3.9326456e-06  3.7689405e-06
      2700  -42169.832     -42170          0.16810677     40905.347      1264.2021     -84339.549      0              8.0566197      1.8857682e-05  1.8615958e-05
      2800  -42169.81      -42169.991      0.18103192     40904.518      1263.6369     -84338.146      0              8.6760655     -1.8143137e-05 -1.8457773e-05
      2900  -42169.783     -42169.99       0.2075834      40904.099      1264.0605     -84338.149      0              9.9485614      3.4221584e-05  3.3319252e-05
      3000  -42169.759     -42169.975      0.21600962     40906.126      1263.9172     -84340.018      0              10.352393     -2.176392e-05  -2.2712353e-05
      3100  -42169.736     -42169.986      0.24983386     40904.792      1264.0821     -84338.86       0              11.973441      2.0036866e-05  1.9465267e-05
      3200  -42169.711     -42169.962      0.25167945     40903.923      1263.3124     -84337.197      0              12.061892     -3.5571212e-05 -3.5818202e-05
      3300  -42169.678     -42169.968      0.28950731     40904.023      1263.7436     -84337.734      0              13.874815      7.1332992e-06  6.5587816e-06
      3400  -42169.645     -42169.948      0.30340165     40905.716      1263.8942     -84339.558      0              14.540709     -1.604209e-05  -1.6782546e-05
      3500  -42169.612     -42169.926      0.31360217     40904.374      1263.5127     -84337.812      0              15.029575     -2.9492751e-05 -2.9962928e-05
      3600  -42169.577     -42169.893      0.31571087     40902.647      1263.1194     -84335.66       0              15.130636     -3.1438041e-05 -3.1633088e-05
      3700  -42169.53      -42169.871      0.34081332     40904.219      1263.1995     -84337.29       0              16.333686     -5.6142296e-05 -5.7017085e-05
      3800  -42169.483     -42169.834      0.35140873     40904.648      1264.0872     -84338.57       0              16.841478      1.3467673e-05  1.2147392e-05
      3900  -42169.439     -42169.804      0.36476995     40903.478      1262.839      -84336.121      0              17.481823     -8.542815e-05  -8.6307291e-05
      4000  -42169.391     -42169.76       0.36937592     40901.219      1262.8019     -84333.781      0              17.702566     -4.3025847e-05 -4.3476076e-05
      4100  -42169.336     -42169.731      0.39461057     40903.688      1262.9848     -84336.404      0              18.911953     -8.0160874e-05 -8.0432855e-05
      4200  -42169.27      -42169.69       0.42030537     40904.013      1263.3627     -84337.066      0              20.143392     -5.7310413e-05 -5.8186332e-05
      4300  -42169.203     -42169.642      0.43839288     40901.08       1262.557      -84333.279      0              21.010247     -7.7818041e-05 -7.8654868e-05
      4400  -42169.133     -42169.597      0.46346903     40900.662      1261.8029     -84332.062      0              22.212037     -0.00014491916 -0.00014533924
      4500  -42169.053     -42169.573      0.52030888     40902.371      1262.9064     -84334.851      0              24.936121     -8.0268869e-05 -8.0743704e-05
      4600  -42168.96      -42169.566      0.60628263     40902.955      1262.2888     -84334.81       0              29.056466     -0.00015306005 -0.00015398401
      4700  -42168.86      -42169.576      0.71624424     40898.42       1261.9081     -84329.905      0              34.326443     -9.4970374e-05 -9.6302952e-05
      4800  -42168.76      -42169.535      0.77513049     40899.211      1260.7676     -84329.514      0              37.148602     -0.00022389895 -0.00022435602
      4900  -42168.639     -42169.556      0.91747302     40900.52       1262.0395     -84332.116      0              43.970455     -0.00013036197 -0.00013130132
      5000  -42168.499     -42169.538      1.0392606      40900.529      1261.045      -84331.112      0              49.807198     -0.00022946879 -0.00023146417
      5100  -42168.35      -42169.503      1.1525089      40895.642      1260.3871     -84325.532      0              55.234692     -0.00019362152 -0.00019624976
      5200  -42168.202     -42169.532      1.3302134      40896.223      1259.846      -84325.602      0              63.751292     -0.00025783556 -0.00025896084
      5300  -42168.02      -42169.451      1.4309724      40899.506      1260.1715     -84329.129      0              68.580229     -0.00030455968 -0.00030605586
      5400  -42167.822     -42169.486      1.6642601      40896.506      1260.1641     -84326.156      0              79.760683     -0.00024417503 -0.00024568987
      5500  -42167.602     -42169.429      1.8261537      40893.064      1257.5578     -84320.051      0              87.519533     -0.0004225154  -0.00042390424
      5600  -42167.357     -42169.335      1.9779809      40891.811      1258.9856     -84320.132      0              94.795943     -0.00026850683 -0.00027006183
      5700  -42167.068     -42169.267      2.1995588      40896.87       1258.5671     -84324.704      0              105.4152      -0.00042479526 -0.00042838029
      5800  -42166.746     -42169.205      2.4581591      40891.267      1258.2968     -84318.769      0              117.80878     -0.00034022842 -0.00034609831
      5900  -42166.419     -42169.066      2.6472595      40887.065      1255.533      -84311.664      0              126.87153     -0.00052107651 -0.00052621958
      6000  -42166.047     -42169.034      2.9866996      40889.093      1257.0843     -84315.21       0              143.13941     -0.00042826671 -0.00043337308
      6100  -42165.654     -42168.807      3.15274        40891.986      1257.4186     -84318.212      0              151.09699     -0.00047522403 -0.00047799013
      6200  -42165.203     -42168.819      3.616023       40885.595      1254.6678     -84309.081      0              173.30011     -0.00059886552 -0.00060100915
      6300  -42164.708     -42168.648      3.9405406      40880.901      1253.5241     -84303.073      0              188.85282     -0.00061973285 -0.00062078085
      6400  -42164.141     -42168.608      4.4670722      40886.527      1254.2909     -84309.426      0              214.08717     -0.00067803042 -0.00068036916
      6500  -42163.514     -42168.415      4.9002234      40884.718      1254.8022     -84307.935      0              234.8462      -0.00059366691 -0.00059740821
      6600  -42162.806     -42168.361      5.5548726      40877.025      1251.3609     -84296.746      0              266.22066     -0.00075718861 -0.00076492521
      6700  -42162.034     -42168.261      6.2265163      40875.11       1251.5702     -84294.94       0              298.4096      -0.00070905272 -0.00072064194
      6800  -42161.236     -42168.121      6.8850968      40879.051      1252.4393     -84299.612      0              329.97247     -0.00071472444 -0.00072542788
      6900  -42160.385     -42167.959      7.5743279      40877.56       1249.5828     -84295.102      0              363.00429     -0.00095660741 -0.00096393042
      7000  -42159.48      -42167.782      8.3020223      40867.66       1249.0372     -84284.479      0              397.87949     -0.0008112759  -0.00081263491
      7100  -42158.427     -42167.719      9.292409       40870.933      1246.4875     -84285.14       0              445.34438     -0.0011199839  -0.0011235918 
      7200  -42157.338     -42167.417      10.078455      40868.059      1248.9547     -84284.43       0              483.01609     -0.0008261999  -0.00082807565
      7300  -42156.126     -42167.326      11.20049       40868.176      1243.7397     -84279.242      0              536.79034     -0.0013226496  -0.0013278789 
      7400  -42154.868     -42166.884      12.016277      40857.234      1245.5658     -84269.684      0              575.8874      -0.0009506861  -0.00095631844
      7500  -42153.505     -42166.663      13.158059      40862.313      1242.2372     -84271.213      0              630.60802     -0.0013905302  -0.0014012581 
      7600  -42152.123     -42166.348      14.224863      40854.827      1244.6751     -84265.851      0              681.73523     -0.00099150323 -0.0010030312 
      7700  -42150.759     -42165.763      15.004498      40856.02       1240.4008     -84262.184      0              719.09972     -0.0014655957  -0.0014702599 
      7800  -42149.303     -42165.448      16.144979      40846.223      1241.3697     -84253.041      0              773.75799     -0.0011871169  -0.0011915344 
      7900  -42147.78      -42165.208      17.428674      40847.443      1237.7959     -84250.448      0              835.27985     -0.0015705836  -0.0015804971 
      8000  -42146.312     -42164.733      18.42045       40840.329      1237.9749     -84243.037      0              882.8113      -0.0014070978  -0.0014166985 
      8100  -42144.874     -42164.503      19.628864      40840.546      1233.5364     -84238.586      0              940.72531     -0.001856231   -0.001864226  
      8200  -42143.469     -42164.167      20.69756       40833.54       1236.6634     -84234.37       0              991.94319     -0.0014578895  -0.001464827  
      8300  -42142.06      -42163.972      21.911566      40833.777      1230.5732     -84228.322      0              1050.1252     -0.0020281366  -0.0020422439 
      8400  -42140.833     -42163.676      22.842747      40818.463      1230.536      -84212.675      0              1094.7526     -0.0017142887  -0.0017245123 
      8500  -42139.586     -42163.169      23.582465      40827.099      1228.2575     -84218.525      0              1130.204      -0.0021880186  -0.0022090145 
      8600  -42138.581     -42162.807      24.22534       40817.39       1232.0858     -84212.282      0              1161.0142     -0.0017126692  -0.0017308007 
      8700  -42137.706     -42161.99       24.283269      40814.464      1222.3074     -84198.761      0              1163.7905     -0.0025932461  -0.0026090691 
      8800  -42136.954     -42161.675      24.721634      40797.366      1223.7405     -84182.781      0              1184.7994     -0.0021634649  -0.0021800298 
      8900  -42136.381     -42160.596      24.214258      40819.182      1224.0697     -84203.848      0              1160.4831     -0.0027687519  -0.0027824782 
      9000  -42135.944     -42159.77       23.826037      40804.33       1229.5457     -84193.646      0              1141.8774     -0.0020855191  -0.0020974826 
      9100  -42135.621     -42158.886      23.264921      40792.881      1214.6412     -84166.408      0              1114.9856     -0.0032808341  -0.0032936861 
      9200  -42135.394     -42158.214      22.820854      40782.313      1221.7095     -84162.236      0              1093.7034     -0.0025174897  -0.0025351629 
      9300  -42135.372     -42157.478      22.106158      40806.302      1223.3507     -84187.131      0              1059.4511     -0.0030746211  -0.003085316  
      9400  -42135.341     -42156.871      21.530685      40787.256      1221.0741     -84165.202      0              1031.8712     -0.0029599738  -0.0029744505 
      9500  -42135.467     -42156.572      21.104483      40768.347      1212.4232     -84137.341      0              1011.4452     -0.0033812281  -0.0033887591 
      9600  -42135.542     -42156.689      21.146881      40777.283      1210.9635     -84144.935      0              1013.4772     -0.0037797781  -0.0037913782 
      9700  -42135.687     -42156.109      20.421643      40782.485      1222.8119     -84161.405      0              978.71973     -0.0029808189  -0.002990879  
      9800  -42135.779     -42156.078      20.299461      40774.381      1208.4018     -84138.861      0              972.86408     -0.0041195181  -0.0041342261 
      9900  -42135.862     -42155.238      19.376065      40741.194      1208.8815     -84105.314      0              928.60975     -0.0034407181  -0.0034590985 
     10000  -42135.86      -42154.693      18.833317      40768.915      1206.6475     -84130.255      0              902.59821     -0.0043831634  -0.0044119584 
     10100  -42135.892     -42154.201      18.30864       40764.655      1219.6017     -84138.457      0              877.45277     -0.0032480546  -0.003278537  
     10200  -42135.938     -42153.315      17.377517      40760.74       1203.838      -84117.893      0              832.82812     -0.0046533685  -0.0046770286 
     10300  -42135.982     -42152.294      16.31149       40735.1        1207.9251     -84095.319      0              781.73815     -0.0038308968  -0.00384047   
     10400  -42135.848     -42151.406      15.557428      40764.043      1205.8632     -84121.311      0              745.59924     -0.0047989076  -0.0048065881 
     10500  -42135.627     -42150.718      15.09189       40753.662      1214.7736     -84119.154      0              723.28803     -0.0038651707  -0.0038718867 
     10600  -42135.257     -42150.241      14.984129      40751.308      1201.9341     -84103.484      0              718.12355     -0.0049784292  -0.0049914871 
     10700  -42134.893     -42149.733      14.840556      40735.75       1207.6526     -84093.136      0              711.24272     -0.004145848   -0.0041546428 
     10800  -42134.412     -42149.327      14.914849      40750.81       1205.0934     -84105.23       0              714.80323     -0.0047789078  -0.0047852946 
     10900  -42133.804     -42148.784      14.98011       40740.764      1208.1911     -84097.739      0              717.93093     -0.0043219316  -0.00432881   
     11000  -42133.06      -42148.417      15.356686      40745.459      1203.0624     -84096.939      0              735.97858     -0.0048398499  -0.004850259  
     11100  -42132.202     -42147.844      15.642162      40733.729      1202.2943     -84083.867      0              749.66016     -0.0046966005  -0.0047108728 
     11200  -42131.249     -42147.482      16.23279       40732.626      1201.3149     -84081.422      0              777.96637     -0.0047759051  -0.0047920948 
     11300  -42130.192     -42146.883      16.69081       40743.735      1204.3812     -84094.999      0              799.91726     -0.0047197996  -0.0047369964 
     11400  -42129.023     -42146.21       17.186411      40738.94       1203.3955     -84088.546      0              823.66925     -0.0047029155  -0.0047216206 
     11500  -42127.774     -42145.553      17.779403      40730.776      1198.3074     -84074.637      0              852.08878     -0.0049808398  -0.0049978809 
     11600  -42126.366     -42144.329      17.962988      40724.775      1199.3068     -84068.411      0              860.88718     -0.0047699004  -0.0047923932 
     11700  -42124.928     -42143.767      18.83891       40743.682      1204.7267     -84092.176      0              902.86626     -0.0046682569  -0.004690129  
     11800  -42123.377     -42142.586      19.208946      40735.205      1206.7213     -84084.513      0              920.60048     -0.0042762106  -0.0043021621 
     11900  -42121.851     -42141.722      19.871084      40730.615      1202.6014     -84074.938      0              952.33385     -0.0045141523  -0.0045361263 
     12000  -42120.222     -42140.739      20.517323      40720.095      1200.4224     -84061.256      0              983.30526     -0.0044395091  -0.0044641573 
     12100  -42118.557     -42139.491      20.934399      40737.728      1204.977      -84082.196      0              1003.2939     -0.0044274448  -0.0044567051 
     12200  -42117.031     -42138.364      21.333336      40740.65       1203.1177     -84082.131      0              1022.4132     -0.0045711629  -0.0045874686 
     12300  -42115.395     -42137.056      21.660453      40733.756      1205.7029     -84076.515      0              1038.0904     -0.0042823447  -0.0042969477 
     12400  -42113.79      -42135.888      22.097606      40731          1205.5094     -84072.397      0              1059.0413     -0.0041205085  -0.0041317827 
     12500  -42112.15      -42134.586      22.436144      40734.856      1203.2111     -84072.653      0              1075.2659     -0.0044349037  -0.004447129  
     12600  -42110.474     -42133.486      23.012204      40727.589      1206.1033     -84067.179      0              1102.874      -0.0039219139  -0.003943014  
     12700  -42108.722     -42133.338      24.615483      40750.452      1207.4899     -84091.28       0              1179.7121     -0.0042777363  -0.0043194706 
     12800  -42107.347     -42131.976      24.629613      40734.611      1209.1221     -84075.71       0              1180.3893     -0.0036331961  -0.0036550186 
     12900  -42105.759     -42131.429      25.669833      40734.456      1192.0729     -84057.958      0              1230.2424     -0.0050411362  -0.0050700931 
     13000  -42104.214     -42130.465      26.250365      40727.773      1212.0453     -84070.283      0              1258.0648     -0.0030270866  -0.0030621709 
     13100  -42102.775     -42129.783      27.008246      40769.415      1209.4482     -84108.646      0              1294.3867     -0.0041941484  -0.0042251797 
     13200  -42101.451     -42128.916      27.465081      40722.647      1213.9998     -84065.562      0              1316.2808     -0.0026151379  -0.0026318348 
     13300  -42099.967     -42127.695      27.728058      40716.893      1193.2507     -84037.839      0              1328.8841     -0.0041854975  -0.0042106172 
     13400  -42098.619     -42127.288      28.669004      40736.583      1218.2629     -84082.135      0              1373.9796     -0.0024010065  -0.0024211537 
     13500  -42097.098     -42125.685      28.587108      40776.631      1219.4685     -84121.784      0              1370.0546     -0.0032363175  -0.0032743701 
     13600  -42095.752     -42124.152      28.400334      40731.206      1206.52       -84061.878      0              1361.1034     -0.0032632475  -0.003299871  
     13700  -42094.409     -42121.796      27.386475      40718.625      1198.9268     -84039.347      0              1312.5136     -0.0037073798  -0.0037447779 
     13800  -42093.031     -42120.352      27.321161      40761.053      1209.029      -84090.435      0              1309.3834     -0.0038761601  -0.0039177546 
     13900  -42091.528     -42119.63       28.101796      40772.081      1218.7094     -84110.42       0              1346.7958     -0.0031477037  -0.0032112947 
     14000  -42090.225     -42117.551      27.326588      40749.632      1199.6601     -84066.844      0              1309.6434     -0.0043885547  -0.0044498405 
     14100  -42089.134     -42116.322      27.188137      40736.698      1213.4791     -84066.5        0              1303.0081     -0.0028670564  -0.002902458  
     14200  -42087.775     -42114.533      26.758392      40773.515      1211.0643     -84099.113      0              1282.4123     -0.0040697328  -0.0041071198 
     14300  -42086.534     -42114.684      28.149342      40739.236      1217.5329     -84071.452      0              1349.0744     -0.0025308561  -0.0025569295 
     14400  -42085.167     -42113.374      28.207387      40753.484      1201.3726     -84068.231      0              1351.8563     -0.0041809206  -0.0042079577 
     14500  -42083.901     -42112.477      28.575984      40772.553      1220.6567     -84105.687      0              1369.5215     -0.0029411967  -0.0029553547 
     14600  -42082.344     -42110.574      28.23025       40772.341      1219.6387     -84102.554      0              1352.952      -0.0031846566  -0.0032179517 
     14700  -42080.743     -42108.788      28.044842      40742.161      1209.2748     -84060.224      0              1344.0662     -0.003286173   -0.0033421307 
     14800  -42079.322     -42107.045      27.723043      40732.643      1218.4014     -84058.089      0              1328.6438     -0.0022868048  -0.0023426976 
     14900  -42078.03      -42104.133      26.103319      40788.058      1224.1536     -84116.345      0              1251.0175     -0.0031898172  -0.0032281829 
     15000  -42076.505     -42103.75       27.244847      40751.143      1250.1767     -84105.07       0              1305.7259     -3.5735661e-05 -8.3325666e-05
     15100  -42074.942     -42101.886      26.944105      40732.228      1214.9395     -84049.054      0              1291.3127     -0.0027138558  -0.0027732066 
     15200  -42073.439     -42101.759      28.320169      40710.018      1240.3461     -84052.123      0              1357.2614      6.994627e-05   7.6539704e-06
     15300  -42071.73      -42101.022      29.292249      40771.343      1228.0934     -84100.458      0              1403.8489     -0.0023753691  -0.0024659063 
     15400  -42070.18      -42101.337      31.156929      40734.141      1245.6423     -84081.12       0              1493.2148      0.00030695182  0.00020849878
     15500  -42068.48      -42101.464      32.983743      40750.488      1215.6651     -84067.617      0              1580.766      -0.0029012857  -0.0030243549 
     15600  -42067.054     -42099.914      32.860205      40738.81       1232.2576     -84070.982      0              1574.8454     -0.0011348985  -0.0012519064 
     15700  -42065.798     -42098.954      33.155259      40747.095      1212.919      -84058.967      0              1588.986      -0.0030808716  -0.0031747761 
     15800  -42064.5       -42096.2        31.69998       40741.235      1219.466      -84056.901      0              1519.2409     -0.0022520484  -0.0023280554 
     15900  -42062.888     -42096.237      33.349185      40780.065      1231.599      -84107.901      0              1598.2801     -0.0022160689  -0.002314575  
     16000  -42061.366     -42095.086      33.71947       40768.04       1231.9504     -84095.076      0              1616.0262     -0.0019372892  -0.0020483608 
     16100  -42060.16      -42094.863      34.70315       40721.199      1213.3838     -84029.445      0              1663.1696     -0.0023594131  -0.0024540636 
     16200  -42058.753     -42093.482      34.728577      40710.137      1229.5614     -84033.181      0              1664.3883     -0.00061006498 -0.00070968917
     16300  -42057.617     -42093.862      36.244645      40775.592      1233.1612     -84102.615      0              1737.0467     -0.0019176034  -0.0019978984 
     16400  -42056.6       -42093.366      36.76629       40752.017      1252.2594     -84097.643      0              1762.0469      0.00044372937  0.00039742481
     16500  -42055.499     -42091.694      36.195335      40759.166      1220.7119     -84071.572      0              1734.6835     -0.0024297936  -0.0024573161 
     16600  -42054.003     -42091.381      37.378067      40712.052      1247.3025     -84050.735      0              1791.3667      0.00081360472  0.00075497211
     16700  -42052.758     -42087.516      34.758694      40721.199      1243.6362     -84052.352      0              1665.8316      1.034858e-05  -5.2173965e-05
     16800  -42051.668     -42087.257      35.58815       40745.027      1243.8534     -84076.137      0              1705.5838     -0.00023741317 -0.00029157092
     16900  -42050.123     -42084.937      34.813487      40759.575      1249.3356     -84093.848      0              1668.4576     -0.00013726252 -0.00023748835
     17000  -42049.024     -42085.153      36.129214      40780.207      1265.6547     -84131.014      0              1731.5146      0.00054459333  0.00044531582
     17100  -42047.562     -42084.051      36.489304      40740.422      1238.0211     -84062.494      0              1748.7722     -0.00088097852 -0.0010236929 
     17200  -42047.115     -42083.87       36.755586      40674.418      1235.6669     -83993.955      0              1761.5339      0.00060955374  0.00053721807
     17300  -42045.85      -42084.862      39.011964      40775.067      1235.1148     -84095.044      0              1869.6722     -0.0016461686  -0.0017463102 
     17400  -42044.853     -42082.685      37.831815      40824.254      1267.6924     -84174.631      0              1813.1128     -8.1875498e-05 -0.00017875155
     17500  -42043.256     -42085.578      42.322079      40768.882      1252.7202     -84107.18       0              2028.3115      0.00020330289  3.4894515e-05
     17600  -42042.992     -42082.379      39.387011      40740.096      1208.0402     -84030.515      0              1887.6465     -0.0032436016  -0.0033336625 
     17700  -42041.524     -42082.401      40.877083      40718.301      1257.6343     -84058.336      0              1959.0592      0.0014777318   0.0013211156 
     17800  -42040.574     -42080.585      40.011392      40818.16       1260.4207     -84159.166      0              1917.5704     -0.00069648647 -0.00086470411
     17900  -42040.115     -42078.353      38.237273      40797.322      1264.588      -84140.263      0              1832.5447      0.00018444961  5.6227759e-05
     18000  -42039.615     -42076.845      37.229794      40784.963      1253.1169     -84114.925      0              1784.2606     -0.00040720266 -0.00050537957
     18100  -42039.271     -42077.799      38.527878      40772.524      1279.9814     -84130.304      0              1846.4721      0.0017805796   0.0017226895 
     18200  -42038.848     -42075.858      37.010218      40762.151      1267.7467     -84105.756      0              1773.7373      0.0010515759   0.001017829  
     18300  -42038.357     -42077.519      39.162484      40758.869      1275.7666     -84112.155      0              1876.886       0.0018961607   0.0018665224 
     18400  -42037.684     -42078.874      41.190738      40783.219      1276.2345     -84138.328      0              1974.0913      0.0017593134   0.001703743  
     18500  -42037.055     -42079.01       41.955354      40881.943      1280.2478     -84241.201      0              2010.736      -0.00027644876 -0.00036344235
     18600  -42036.495     -42080.686      44.191061      40802.846      1308.1252     -84191.658      0              2117.8836      0.0041506026   0.0040241662 
     18700  -42037.167     -42078.31       41.143179      40767.158      1224.3196     -84069.788      0              1971.812      -0.0025539937  -0.0025907837 
     18800  -42037.163     -42077.862      40.699075      40731.192      1278.7853     -84087.84       0              1950.528       0.0027706494   0.0027304374 
     18900  -42037.088     -42078.066      40.977084      40859.754      1308.7117     -84246.532      0              1963.8518      0.0025424868   0.0024693364 
     19000  -42037.277     -42079.404      42.127754      40880.933      1311.8497     -84272.187      0              2018.9984      0.0024302157   0.0023373572 
     19100  -42037.652     -42080.643      42.991145      40774.871      1283.9916     -84139.505      0              2060.3769      0.0028464271   0.0027296602 
     19200  -42038.619     -42084.88       46.26144       40807.312      1259.8038     -84151.996      0              2217.1078     -0.00018589574 -0.00027699541
     19300  -42039.832     -42086.19       46.358095      40851.618      1309.3244     -84247.133      0              2221.74        0.003212444    0.003148669  
     19400  -42040.921     -42088.171      47.250128      40822.552      1305.4496     -84216.173      0              2264.4913      0.0033893669   0.0033036563 
     19500  -42042.593     -42089.766      47.173048      40755.336      1293.0774     -84138.179      0              2260.7972      0.0045291549   0.0044566382 
     19600  -42044.339     -42091.554      47.215083      40838.817      1285.6846     -84216.056      0              2262.8117      0.0016377558   0.0015435797 
     19700  -42046.557     -42089.55       42.993513      40867.271      1323.1686     -84279.99       0              2060.4904      0.0041099135   0.0039906549 
     19800  -42049.86      -42090.102      40.24148       40887.319      1287.9645     -84265.385      0              1928.5975      0.00053397575  0.00044218755
     19900  -42054.043     -42092.588      38.544866      40788.027      1291.8926     -84172.507      0              1847.2862      0.0029328216   0.0028641706 
     20000  -42058.822     -42094.754      35.932338      40837.512      1285.1055     -84217.371      0              1722.0792      0.0013373794   0.0012465932 
     20100  -42064.538     -42095.983      31.445301      40856.391      1325.6371     -84278.011      0              1507.0353      0.0042246613   0.0041425429 
     20200  -42070.268     -42100.397      30.128906      40826.975      1320.3103     -84247.683      0              1443.9462      0.0048728835   0.0048051935 
     20300  -42075.109     -42101.811      26.701181      40839.244      1302.3744     -84243.429      0              1279.6704      0.0026321802   0.0025663975 
     20400  -42078.4       -42104.406      26.006338      40860.373      1311.6558     -84276.435      0              1246.3696      0.003379105    0.0032713907 
     20500  -42080.885     -42104.249      23.363959      40881.658      1308.1162     -84294.023      0              1119.732       0.0021591557   0.0020509645 
     20600  -42082.928     -42106.124      23.195691      40856.465      1292.3919     -84254.981      0              1111.6677      0.0015195836   0.0014593514 
     20700  -42083.764     -42106.978      23.213399      40834.114      1299.1846     -84240.277      0              1112.5163      0.002624463    0.0025389862 
     20800  -42084.409     -42108.867      24.458427      40868.434      1314.9897     -84292.291      0              1172.1851      0.0034386707   0.0033530679 
     20900  -42085.069     -42110.689      25.619977      40866.861      1337.6233     -84315.173      0              1227.8531      0.0058164032   0.0057655937 
     21000  -42085.155     -42111.836      26.680125      40871.083      1306.8238     -84289.743      0              1278.6613      0.0029030097   0.0028473172 
     21100  -42084.85      -42113.289      28.439281      40841.26       1326.5297     -84281.079      0              1362.9699      0.0057091163   0.0056273298 
     21200  -42084.466     -42115.299      30.83352       40929.744      1301.3564     -84346.4        0              1477.7153      0.0013198104   0.0012259095 
     21300  -42084.305     -42115.819      31.513777      40870.995      1320.9623     -84307.777      0              1510.317       0.0048167866   0.0047606473 
     21400  -42083.597     -42116.34       32.743736      40879.786      1293.3131     -84289.439      0              1569.2636      0.0019664452   0.0019092505 
     21500  -42082.407     -42117.406      34.999383      40867.384      1329.1877     -84313.978      0              1677.3668      0.0059158211   0.0058235605 
     21600  -42081.369     -42119.79       38.42142       40921.664      1326.8824     -84368.336      0              1841.37        0.0045230177   0.0044357237 
     21700  -42080.437     -42119.716      39.279654      40886.152      1327.3913     -84333.26       0              1882.5014      0.0057172844   0.0056768843 
     21800  -42078.57      -42121.029      42.458355      40908.972      1304.0827     -84334.083      0              2034.8426      0.0031756627   0.0030956029 
     21900  -42076.569     -42122.449      45.880699      40891.591      1341.9278     -84355.968      0              2198.8605      0.007231837    0.0071132528 
     22000  -42074.786     -42122.503      47.717163      40940.638      1320.2116     -84383.352      0              2286.8742      0.0043117283   0.0041959268 
     22100  -42072.713     -42121.881      49.167661      40856.408      1344.0822     -84322.37       0              2356.3902      0.0085978189   0.0084656441 
     22200  -42071.309     -42122.001      50.691604      40904.506      1315.7495     -84342.257      0              2429.4261      0.0049416044   0.0048742146 
     22300  -42069.714     -42123.554      53.840438      40937.365      1334.8278     -84395.747      0              2580.3359      0.0060428828   0.0060176074 
     22400  -42067.849     -42125.51       57.660897      40950.205      1318.8246     -84394.539      0              2763.4337      0.0046957296   0.0046645142 
     22500  -42065.82      -42128.719      62.899125      40930.292      1314.0687     -84373.08       0              3014.479       0.0050392457   0.0049580308 
     22600  -42064.672     -42128.598      63.92686       40934.759      1325.0715     -84388.429      0              3063.7338      0.0060596288   0.0059966768 
     22700  -42063.37      -42129.501      66.130298      40919.159      1347.5944     -84396.254      0              3169.3349      0.0085818187   0.0084705942 
     22800  -42063.463     -42131          67.536753      40957.495      1329.8164     -84418.311      0              3236.7402      0.0061760348   0.0061219256 
     22900  -42063.278     -42132.304      69.025975      40924.427      1341.1043     -84397.835      0              3308.112       0.0081161152   0.0080238795 
     23000  -42064.164     -42134.012      69.847856      40919.748      1319.514      -84373.274      0              3347.5012      0.0063928551   0.0063120242 
     23100  -42065.603     -42136.35       70.746867      40933.105      1334.6438     -84404.099      0              3390.5868      0.0074416655   0.0073612337 
     23200  -42067.705     -42136.611      68.905357      40953.948      1331.1684     -84421.727      0              3302.3313      0.0067249696   0.0066427036 
     23300  -42070.749     -42137.472      66.723191      40959.302      1329.2778     -84426.052      0              3197.7497      0.00614104     0.0060954905 
     23400  -42073.965     -42136.631      62.665436      40940.343      1323.3683     -84400.342      0              3003.2793      0.0059529045   0.0059001124 
     23500  -42077.783     -42138.673      60.889236      40946.696      1317.9225     -84403.291      0              2918.1539      0.0051205468   0.0050811675 
     23600  -42081.818     -42139.393      57.574909      40942.055      1356.628      -84438.076      0              2759.3127      0.0087519786   0.0087193071 
     23700  -42085.678     -42140.855      55.176883      40959.373      1338.1345     -84438.363      0              2644.3858      0.0064100092   0.0063520321 
     23800  -42089.689     -42140.586      50.897397      40922.669      1321.0639     -84384.319      0              2439.2889      0.0054809338   0.0054232708 
     23900  -42093.502     -42141.114      47.612533      40907.84       1322.9003     -84371.855      0              2281.8597      0.0058167582   0.0057642458 
     24000  -42096.988     -42142.302      45.314144      40945.958      1341.424      -84429.684      0              2171.7081      0.0064549562   0.006403943  
     24100  -42099.896     -42143.358      43.462457      40961.583      1324.4242     -84429.365      0              2082.9648      0.0043916837   0.0043240375 
     24200  -42102.457     -42145.935      43.478036      40898.412      1313.6619     -84358.009      0              2083.7114      0.0049514154   0.0048732565 
     24300  -42104.615     -42147.012      42.39614       40905.79       1316.1189     -84368.921      0              2031.8609      0.004922866    0.0048370782 
     24400  -42106.584     -42147.974      41.390593      40945.38       1340.2347     -84433.589      0              1983.6695      0.0060632748   0.005992833  
     24500  -42108.104     -42148.369      40.265121      40942.194      1327.2147     -84417.778      0              1929.7305      0.0047789965   0.0047126564 
     24600  -42109.354     -42147.643      38.288369      40863.325      1312.0356     -84323.003      0              1834.9935      0.0050885914   0.0050338785 
     24700  -42109.909     -42148.603      38.693813      40910.123      1317.1935     -84375.92       0              1854.4246      0.0043558651   0.0042654708 
     24800  -42110.674     -42148.013      37.338876      40952.068      1333.5752     -84433.656      0              1789.4885      0.0046431763   0.0045732388 
     24900  -42111.016     -42149.144      38.128014      40906.602      1309.2515     -84364.998      0              1827.3084      0.0034995964   0.0034263666 
     25000  -42111.029     -42149.088      38.059019      40850.94       1301.8996     -84301.927      0              1824.0017      0.00405837     0.0039693847 
     25100  -42111.231     -42149.563      38.332228      40915.702      1326.7019     -84391.967      0              1837.0955      0.004728429    0.0046680273 
     25200  -42111.037     -42150.311      39.273254      40918.104      1319.1168     -84387.531      0              1882.1947      0.0038929191   0.0038366868 
     25300  -42110.803     -42152.029      41.225368      40855.051      1298.2212     -84305.301      0              1975.751       0.0035732553   0.003537804  
     25400  -42110.181     -42153.853      43.672308      40870.583      1292.4639     -84316.901      0              2093.0221      0.0026570873   0.0026182995 
     25500  -42109.361     -42154.169      44.808149      40912.355      1315.6084     -84382.133      0              2147.4579      0.0037795808   0.0037314895 
     25600  -42108.306     -42154.216      45.909891      40889.619      1299.7608     -84343.595      0              2200.2596      0.002743907    0.0026776446 
     25700  -42107.485     -42152.586      45.101398      40844.78       1282.3855     -84279.751      0              2161.512       0.0020908422   0.0020465243 
     25800  -42106.447     -42151.68       45.232906      40863.767      1307.8533     -84323.3        0              2167.8147      0.0038735937   0.0038442473 
     25900  -42105.023     -42151.782      46.759331      40880.58       1313.915      -84346.277      0              2240.9695      0.0039549592   0.0039088114 
     26000  -42103.447     -42153.486      50.039005      40863.384      1277.517      -84294.386      0              2398.1499      0.0010934204   0.0010252749 
     26100  -42102.08      -42153.595      51.515468      40824.795      1282.1684     -84260.559      0              2468.9103      0.002471201    0.0024147933 
     26200  -42100.714     -42154.314      53.600061      40876.727      1288.3803     -84319.421      0              2568.8157      0.0017743045   0.0017351745 
     26300  -42099.172     -42154.063      54.891782      40846.763      1299.1371     -84299.963      0              2630.7222      0.0034029256   0.0033660546 
     26400  -42097.476     -42152.548      55.071717      40807.902      1280.8041     -84241.254      0              2639.3457      0.0025576592   0.0025084053 
     26500  -42095.885     -42153.721      57.835719      40846.239      1269.7144     -84269.675      0              2771.8122      0.00069607619  0.00064212256
     26600  -42094.543     -42153.687      59.144322      40851.13       1289.0418     -84293.86       0              2834.5278      0.0023004342   0.0022646663 
     26700  -42092.997     -42154.485      61.487833      40830.892      1276.2483     -84261.625      0              2946.842       0.0017253881   0.0016780043 
     26800  -42091.565     -42155.19       63.624498      40790          1264.2042     -84209.394      0              3049.243       0.0016554188   0.0015988968 
     26900  -42090.271     -42154.612      64.340446      40833.904      1273.0597     -84261.575      0              3083.5552      0.0013426399   0.0012753448 
     27000  -42089.139     -42154.368      65.22921       40834.456      1276.9779     -84265.802      0              3126.1497      0.0016167464   0.0015428869 
     27100  -42088.11      -42154.694      66.584075      40780.342      1260.0231     -84195.059      0              3191.0825      0.0013751725   0.0012871597 
     27200  -42087.218     -42154.96       67.741653      40795.615      1254.0518     -84204.627      0              3246.5601      0.00048199301  0.0003756806 
     27300  -42086.781     -42154.771      67.989873      40832.37       1271.8787     -84259.019      0              3258.4562      0.0012043362   0.0011099224 
     27400  -42086.483     -42155.248      68.764382      40794.159      1262.5183     -84211.925      0              3295.575       0.0012360475   0.0011506348 
     27500  -42086.161     -42153.572      67.411079      40764.617      1242.9302     -84161.119      0              3230.7171      3.1058672e-05 -7.4187836e-05
     27600  -42086.702     -42153.506      66.804192      40788.154      1259.2945     -84200.954      0              3201.6317      0.00088174565  0.00083522438
     27700  -42087.132     -42151.273      64.140872      40832.401      1257.5498     -84241.223      0              3073.9905     -0.00053443333 -0.00056126721
     27800  -42087.22      -42151.036      63.816558      40750.716      1251.4529     -84153.205      0              3058.4476      0.00079631799  0.00070993483
     27900  -42088.523     -42150.163      61.640226      40762.452      1236.0408     -84148.656      0              2954.1455     -0.0010729411  -0.0011202225 
     28000  -42089.998     -42150.281      60.283147      40794.555      1260.2408     -84205.077      0              2889.1067      0.00034538167  0.00029797864
     28100  -42091.458     -42153.616      62.15781       40787.261      1239.9134     -84180.79       0              2978.951      -0.0011826716  -0.0012990316 
     28200  -42094.534     -42152.558      58.023834      40740.556      1229.9743     -84123.088      0              2780.8277     -0.0011495917  -0.0012169433 
     28300  -42097.507     -42152.451      54.944004      40769.407      1232.7867     -84154.645      0              2633.225      -0.0017221647  -0.0017983593 
     28400  -42101.034     -42151.101      50.067173      40778.807      1252.9643     -84182.873      0              2399.4998     -0.00035836662 -0.00040101909
     28500  -42103.748     -42150.056      46.30823       40757.09       1234.4839     -84141.63       0              2219.3502     -0.0017471592  -0.0018483345 
     28600  -42107.078     -42149.105      42.027278      40737.188      1226.9556     -84113.249      0              2014.183      -0.0021192968  -0.0021856534 
     28700  -42109.72      -42149.352      39.631687      40789.87       1231.0597     -84170.282      0              1899.3728     -0.0030563886  -0.0031273085 
     28800  -42112.281     -42150.192      37.910153      40757.15       1239.7371     -84147.079      0              1816.8672     -0.0015174005  -0.0015609087 
     28900  -42114.097     -42150.661      36.564132      40731.654      1221.3187     -84103.634      0              1752.3584     -0.0025833584  -0.0026407469 
     29000  -42115.993     -42149.926      33.93308       40763.993      1224.3371     -84138.256      0              1626.2636     -0.0031553662  -0.0031721211 
     29100  -42116.951     -42150.133      33.182784      40770.366      1238.0617     -84158.561      0              1590.3052     -0.0020744516  -0.0021167614 
     29200  -42117.654     -42148.604      30.950398      40743.125      1227.2365     -84118.966      0              1483.3167     -0.0024770199  -0.0025376883 
     29300  -42118.176     -42148.094      29.917802      40746.939      1213.8502     -84108.883      0              1433.8289     -0.0038123715  -0.0038741384 
     29400  -42118.817     -42148.128      29.310375      40762.63       1227.2443     -84138.001      0              1404.7176     -0.0029306732  -0.0029440779 
     29500  -42118.496     -42148.642      30.146118      40756.693      1232.9212     -84138.256      0              1444.7711     -0.0022437261  -0.0022855441 
     29600  -42118.239     -42147.278      29.03927       40742.641      1207.3119     -84097.232      0              1391.7248     -0.004149598   -0.0041757959 
     29700  -42117.082     -42147.53       30.448836      40744.279      1223.5429     -84115.353      0              1459.2791     -0.0026887049  -0.0027683214 
     29800  -42116.312     -42146.281      29.969196      40783.962      1226.9401     -84157.183      0              1436.292      -0.0032374317  -0.0032866493 
     29900  -42114.7       -42146.64       31.939761      40754.229      1220.1436     -84121.013      0              1530.7326     -0.0029981142  -0.0030706227 
     30000  -42113.006     -42145.472      32.466196      40743.225      1204.0172     -84092.714      0              1555.9623     -0.0040314229  -0.0040904063 
     30100  -42110.989     -42145.123      34.133406      40753.469      1227.9377     -84126.529      0              1635.8643     -0.0020910288  -0.0021255569 
     30200  -42108.191     -42143.773      35.582101      40777.284      1221.7643     -84142.821      0              1705.2939     -0.0030489372  -0.0030996476 
     30300  -42104.901     -42142.821      37.919714      40742.455      1213.916      -84099.191      0              1817.3255     -0.0027153928  -0.0027945618 
     30400  -42101.97      -42141.621      39.651282      40747.023      1216.7331     -84105.377      0              1900.3119     -0.0023877887  -0.0024105802 
     30500  -42098.068     -42140.881      42.813431      40770.489      1232.0274     -84143.398      0              2051.8599     -0.0014184174  -0.0014681491 
     30600  -42094.374     -42137.983      43.608972      40785.533      1213.6743     -84137.19       0              2089.9866     -0.0033422246  -0.0033768692 
     30700  -42089.958     -42137.77       47.811652      40713.481      1223.9293     -84075.18       0              2291.4026     -0.00037781328 -0.00047850833
     30800  -42086.389     -42138.022      51.632525      40764.534      1207.6476     -84110.204      0              2474.5203     -0.0027182208  -0.0027910539 
     30900  -42082.238     -42138.933      56.694767      40791.168      1227.4839     -84157.585      0              2717.1313     -0.0012669479  -0.0013857549 
     31000  -42079.051     -42134.225      55.173489      40772.558      1220.4619     -84127.244      0              2644.2232     -0.0014187882  -0.0014956717 
     31100  -42075.637     -42131.52       55.882918      40731.929      1213.4665     -84076.916      0              2678.223      -0.0010008625  -0.0010764046 
     31200  -42072.458     -42130.225      57.767573      40794.988      1208.0205     -84133.234      0              2768.5462     -0.0028664396  -0.0029414561 
     31300  -42069.287     -42129.273      59.985511      40744.841      1230.1861     -84104.3        0              2874.8422      0.00046936071  0.00038651445
     31400  -42065.964     -42128.692      62.72868       40761.277      1209.4843     -84099.454      0              3006.3103     -0.0014796636  -0.0016104605 
     31500  -42063.651     -42126.133      62.48205       40768.496      1208.7826     -84103.412      0              2994.4904     -0.001564861   -0.0016381589 
     31600  -42060.576     -42126.026      65.449419      40784.922      1230.8557     -84141.803      0              3136.7034      0.00018586706  7.0914464e-05
     31700  -42058.474     -42121.249      62.774721      40769.569      1234.3651     -84125.183      0              3008.5168      0.0006190846   0.00056025988
     31800  -42055.679     -42115.912      60.233033      40732.802      1195.2662     -84043.981      0              2886.7049     -0.0021412961  -0.0022291551 
     31900  -42052.653     -42114.366      61.712784      40721.695      1222.3959     -84058.456      0              2957.6229      0.00065398352  0.00049233429
     32000  -42050.409     -42113.625      63.216818      40813.81       1226.5068     -84153.943      0              3029.7046     -0.0011810531  -0.001319547  
     32100  -42047.544     -42112.853      65.309718      40794.223      1202.0568     -84109.133      0              3130.0081     -0.0028197435  -0.0030149616 
     32200  -42045.872     -42109.127      63.254564      40714.174      1205.8819     -84029.183      0              3031.5136     -0.00076371839 -0.00087250832
     32300  -42043.722     -42107.844      64.122778      40783.965      1168.57       -84060.379      0              3073.1233     -0.0056794155  -0.0057581583 
     32400  -42041.407     -42103.541      62.134371      40772.096      1219.6853     -84095.322      0              2977.8277     -0.0012716064  -0.0013383844 
     32500  -42038.83      -42098.647      59.817798      40766.411      1201.6215     -84066.68       0              2866.8045     -0.002792348   -0.0028800216 
     32600  -42036.211     -42097.056      60.845333      40735.821      1181.0715     -84013.948      0              2916.0497     -0.0037292351  -0.0038351879 
     32700  -42033.605     -42098.832      65.22681       40733.415      1224.3159     -84056.563      0              3126.0347      0.0003527236   0.00023438619
     32800  -42031.224     -42094.871      63.646272      40770.994      1207.829      -84073.694      0              3050.2865     -0.0024810401  -0.0025704099 
     32900  -42027.772     -42089.182      61.410057      40703.458      1217.943      -84010.584      0              2943.1145     -0.00016475375 -0.00034147079
     33000  -42025.151     -42083.878      58.726963      40697.222      1187.9813     -83969.081      0              2814.5256     -0.0031031034  -0.003269382  
     33100  -42022.234     -42082.421      60.18654       40744.909      1186.9646     -84014.295      0              2884.4767     -0.0044502697  -0.0046274576 
     33200  -42019.629     -42079.447      59.818539      40747.638      1217.4319     -84044.517      0              2866.84       -0.0021294741  -0.0022653439 
     33300  -42016.321     -42079.527      63.205586      40725.839      1188.6121     -83993.978      0              3029.1663     -0.0038679181  -0.0040431252 
     33400  -42014.023     -42076.298      62.275585      40649.273      1190.9742     -83916.545      0              2984.5955     -0.0020580264  -0.0021478459 
     33500  -42010.595     -42075.241      64.645873      40695.798      1192.1188     -83963.157      0              3098.1929     -0.003083825   -0.0032035302 
     33600  -42007.164     -42071.732      64.567683      40707.472      1200.861      -83980.065      0              3094.4457     -0.0031362705  -0.0032859301 
     33700  -42003.514     -42066.327      62.812762      40687.742      1179.2546     -83933.323      0              3010.34       -0.0045388102  -0.0047368052 
     33800  -42000.203     -42064.485      64.282004      40675.73       1182.17       -83922.386      0              3080.7543     -0.0042823703  -0.004488225  
     33900  -41996.735     -42061.638      64.902859      40664.347      1210.3334     -83936.318      0              3110.5092     -0.001717453   -0.0019526992 
     34000  -41993.222     -42059.639      66.417855      40626.576      1190.9189     -83877.134      0              3183.1163     -0.0025518913  -0.0028170692 
     34100  -41990.771     -42052.955      62.184015      40633.229      1175.1636     -83861.348      0              2980.2069     -0.004490392   -0.0046707585 
     34200  -41988.282     -42050.25       61.967491      40717.313      1178.1414     -83945.704      0              2969.8299     -0.0067038104  -0.0068019676 
     34300  -41984.269     -42047.501      63.231745      40662.056      1220.2466     -83929.804      0              3030.42       -0.0014206652  -0.0016344855 
     34400  -41981.634     -42045.367      63.733012      40582.97       1181.3421     -83809.679      0              3054.4435     -0.0030958213  -0.003281682  
     34500  -41978.908     -42042.977      64.068796      40613.063      1165.6578     -83821.698      0              3070.5362     -0.0055517865  -0.0057195336 
     34600  -41975.08      -42040.975      65.894973      40676.884      1193.1459     -83911.005      0              3158.0568     -0.0049208511  -0.0052226623 
     34700  -41973.223     -42036.769      63.546178      40615.039      1185.8541     -83837.662      0              3045.4894     -0.0037629303  -0.0039900277 
     34800  -41971.027     -42029.156      58.128536      40563.53       1198.8557     -83791.541      0              2785.8456     -0.0014662988  -0.0016698052 
     34900  -41968.509     -42027.026      58.517255      40687.363      1184.3235     -83898.713      0              2804.4752     -0.0066008795  -0.006833736  
     35000  -41967.063     -42021.22       54.156821      40648.937      1205.7112     -83875.868      0              2595.4987     -0.0039883467  -0.0041417535 
     35100  -41964.597     -42017.576      52.978585      40559.949      1196.6749     -83774.2        0              2539.0311     -0.0027117888  -0.0029201376 
     35200  -41963.009     -42010.752      47.74251       40599.417      1209.8292     -83819.998      0              2288.089      -0.00299588    -0.0031718946 
     35300  -41960.604     -42011.962      51.358135      40640.767      1192.0997     -83844.829      0              2461.37       -0.005804424   -0.0060414595 
     35400  -41958.374     -42010.434      52.059907      40611.468      1213.2192     -83835.121      0              2495.0029     -0.0023158356  -0.0026137495 
     35500  -41955.751     -42011.149      55.398234      40625.369      1190.7414     -83827.26       0              2654.9942     -0.0046909941  -0.0050779216 
     35600  -41954.325     -42010.748      56.422727      40644.871      1209.8413     -83865.46       0              2704.0937     -0.003325044   -0.0036803526 
     35700  -41952.842     -42010.157      57.315176      40570.202      1207.9666     -83788.326      0              2746.8648     -0.0017111275  -0.0020262506 
     35800  -41951.713     -42005.283      53.569967      40620.161      1182.9342     -83808.378      0              2567.3734     -0.0052875549  -0.0055214978 
     35900  -41949.08      -42002.139      53.059679      40627.546      1180.3982     -83810.084      0              2542.9175     -0.005982873   -0.0062982327 
     36000  -41948.6       -41992.398      43.798142      40614.354      1245.8379     -83852.59       0              2099.0527      0.00022540861  7.1692098e-05
     36100  -41946.136     -41992.423      46.286848      40590.447      1225.9728     -83808.843      0              2218.3255     -0.0013409599  -0.001538941  
     36200  -41944.658     -41990.386      45.727262      40653.529      1172.3183     -83816.233      0              2191.507      -0.0074313479  -0.0075516632 
     36300  -41941.42      -41994.62       53.199838      40615.299      1213.3579     -83823.277      0              2549.6347     -0.002486539   -0.0027213132 
     36400  -41938.829     -41991.882      53.052703      40608.819      1230.7432     -83831.444      0              2542.5832     -0.00034752216 -0.00059533576
     36500  -41937.483     -41993.713      56.229352      40655.757      1199.7468     -83849.217      0              2694.8261     -0.0038759387  -0.0040000328 
     36600  -41933.191     -41993.399      60.208754      40678.3        1212.7819     -83884.482      0              2885.5413     -0.0032395719  -0.0035470857 
     36700  -41931.696     -41988.262      56.566485      40659.687      1223.513      -83871.462      0              2710.9834     -0.0021082367  -0.0022624398 
     36800  -41928.911     -41993.116      64.204349      40592.441      1179.9503     -83765.507      0              3077.0326     -0.0038439906  -0.0039985898 
     36900  -41925.372     -41993.358      67.985769      40593.948      1179.085      -83766.392      0              3258.2595     -0.0038194651  -0.0040319834 
     37000  -41921.825     -41986.554      64.728435      40637.254      1239.5165     -83863.325      0              3102.1498     -0.00051774743 -0.000791138  
     37100  -41917.841     -41986.827      68.986642      40758.982      1237.2601     -83983.07       0              3306.227      -0.0030257872  -0.0034294667 
     37200  -41913.324     -41997.894      84.570112      40626.277      1195.3688     -83819.54       0              4053.0743     -0.0024699938  -0.0030343037 
     37300  -41911.717     -41999.421      87.704316      40542.548      1200.4679     -83742.437      0              4203.2829      0.00022836766 -0.00017825155
     37400  -41907.318     -41996.574      89.255355      40555.698      1216.4556     -83768.728      0              4277.6174      0.00089308691  0.00030441587
     37500  -41906.753     -41996.034      89.28108       40703.277      1195.0923     -83894.403      0              4278.8503     -0.0049237833  -0.0052618347 
     37600  -41904.281     -41998.604      94.323033      40609.476      1197.9458     -83806.026      0              4520.489      -0.0019175673  -0.002277265  
     37700  -41900.054     -41995.478      95.423397      40567.802      1238.2404     -83801.52       0              4573.2246      0.0028169369   0.0022131478 
     37800  -41900.953     -42005.039      104.08608      40672.002      1196.7656     -83873.806      0              4988.389      -0.0041535406  -0.0044805106 
     37900  -41899.98      -42013.183      113.20257      40656.292      1189.3173     -83858.792      0              5425.3023     -0.0039452126  -0.0042640708 
     38000  -41899.477     -42008.228      108.75128      40493.56       1185.9364     -83687.725      0              5211.9716     -0.0006673838  -0.00098804164
     38100  -41899.508     -42000.08       100.57281      40507.731      1168.0049     -83675.816      0              4820.0132     -0.0034509644  -0.0038030182 
     38200  -41900.938     -42014.06       113.12135      40655.645      1191.2544     -83860.959      0              5421.4098     -0.004864895   -0.0051644691 
     38300  -41902.734     -42018.162      115.4283       40645.143      1230.3795     -83893.685      0              5531.9718     -0.001208369   -0.0015163129 
     38400  -41904.362     -42018.6        114.23767      40518.114      1151.0057     -83687.72       0              5474.9102     -0.0054034525  -0.005829159  
     38500  -41909.047     -42019.363      110.31545      40453.778      1153.0003     -83626.141      0              5286.9354     -0.0038092675  -0.0040953815 
     38600  -41913.202     -42023.417      110.21501      40566.792      1177.9174     -83768.126      0              5282.1217     -0.0046506065  -0.0049437007 
     38700  -41919.34      -42019.249      99.909935      40631.102      1206.3499     -83856.702      0              4788.2447     -0.0051728019  -0.0053452065 
     38800  -41924.453     -42018.235      93.781904      40479.128      1176.8182     -83674.181      0              4494.555      -0.0043149851  -0.0045269476 
     38900  -41929.854     -42024.546      94.692646      40427.674      1157.4157     -83609.636      0              4538.2029     -0.0044263522  -0.0047014934 
     39000  -41936.869     -42033.549      96.679502      40560.287      1158.4598     -83752.295      0              4633.4242     -0.0083861984  -0.008566506  
     39100  -41942.816     -42034.752      91.935471      40560.066      1202.7708     -83797.589      0              4406.0636     -0.0047045138  -0.0049369759 
     39200  -41948.159     -42033.368      85.208661      40455.591      1174.583      -83663.542      0              4083.6771     -0.0051239806  -0.0054470919 
     39300  -41954.486     -42028.27       73.78336       40455.202      1139.4402     -83622.912      0              3536.1126     -0.0090951266  -0.0093427391 
     39400  -41960.765     -42027.217      66.451611      40499.038      1188.4301     -83714.685      0              3184.734      -0.0067685687  -0.0068773466 
     39500  -41964.987     -42036.986      71.99942       40495.322      1209.9629     -83742.271      0              3450.6162     -0.0042384741  -0.0043826923 
     39600  -41967.787     -42039.702      71.914418      40477.883      1144.8958     -83662.481      0              3446.5424     -0.0092543884  -0.0095158436 
     39700  -41970.97      -42041.533      70.562842      40425.952      1156.4737     -83623.959      0              3381.7673     -0.0075407573  -0.0078027799 
     39800  -41974.627     -42037.841      63.214207      40450.158      1196.9455     -83684.944      0              3029.5795     -0.0047613498  -0.0048844418 
     39900  -41975.991     -42042.776      66.784876      40495.27       1160.4775     -83698.524      0              3200.706      -0.0090222002  -0.0092042001 
     40000  -41976.94      -42046.335      69.395876      40448.605      1155.5223     -83650.463      0              3325.8397     -0.0081243887  -0.0083562103 
     40100  -41977.91      -42049.651      71.740851      40452.481      1155.1968     -83657.328      0              3438.2241     -0.0080782628  -0.0083009238 
     40200  -41977.391     -42052.1        74.709518      40457.538      1173.9361     -83683.574      0              3580.4993     -0.0065542207  -0.0068984576 
     40300  -41977.844     -42053.087      75.243127      40460.93       1141.2831     -83655.3        0              3606.0728     -0.0095043408  -0.0098272498 
     40400  -41978.304     -42053.297      74.993081      40465.327      1148.3748     -83666.999      0              3594.0892     -0.0088315936  -0.0090967244 
     40500  -41978.475     -42050.223      71.748105      40502.417      1188.6822     -83741.322      0              3438.5718     -0.0066240109  -0.0068447968 
     40600  -41978.301     -42052.563      74.262065      40457.071      1172.4807     -83682.115      0              3559.0548     -0.0067803655  -0.0069895479 
     40700  -41978.733     -42049.972      71.238747      40476.432      1129.0779     -83655.481      0              3414.1605     -0.011228271   -0.011334478  
     40800  -41977.625     -42059.179      81.553645      40443.104      1178.3053     -83680.589      0              3908.5083     -0.0051277856  -0.0053017831 
     40900  -41976.966     -42059.18       82.213301      40457.879      1189.3396     -83706.398      0              3940.1227     -0.0046655077  -0.0048403145 
     41000  -41974.208     -42063.031      88.823003      40448.699      1173.628      -83685.358      0              4256.8967     -0.0054799754  -0.0058879751 
     41100  -41974.412     -42049.617      75.204202      40444.21       1153.6605     -83647.487      0              3604.2073     -0.0078757392  -0.0081681532 
     41200  -41973.435     -42061.258      87.823379      40469.789      1189.3768     -83720.424      0              4208.9891     -0.0046166957  -0.0049300312 
     41300  -41973.91      -42064.847      90.936956      40501.526      1190.0769     -83756.45       0              4358.2092     -0.0048944787  -0.0050710096 
     41400  -41972.532     -42069.327      96.795408      40492.246      1132.501      -83694.075      0              4638.9791     -0.0094011116  -0.0096545424 
     41500  -41971.207     -42060.523      89.315508      40507.372      1142.7863     -83710.681      0              4280.5003     -0.0094105042  -0.009737377  
     41600  -41971.902     -42065.021      93.119255      40472.407      1180.134      -83717.562      0              4462.7972     -0.0048890146  -0.0050631759 
     41700  -41971.787     -42068.423      96.636185      40527.369      1183.4956     -83779.287      0              4631.3482     -0.0055325982  -0.005677325  
     41800  -41971.143     -42070.836      99.69275       40537.357      1159.5494     -83767.742      0              4777.8359     -0.0081124822  -0.0083050217 
     41900  -41970.322     -42065.312      94.990514      40502.569      1156.6557     -83724.537      0              4552.4784     -0.0080257537  -0.0083150012 
     42000  -41971.302     -42076.271      104.96847      40463.113      1156.6763     -83696.06       0              5030.6778     -0.0059413155  -0.0061518117 
     42100  -41973.348     -42080.218      106.8699       40463.444      1192.1354     -83735.798      0              5121.8054     -0.0024700268  -0.0025328629 
     42200  -41972.95      -42079.257      106.30718      40524.656      1221.9769     -83825.89       0              5094.8368     -0.0020152536  -0.0022573666 
     42300  -41974.956     -42074.581      99.624716      40556.037      1161.7007     -83792.319      0              4774.5754     -0.0084950818  -0.008688951  
     42400  -41977.491     -42081.696      104.20486      40425.3        1127.8371     -83634.833      0              4994.0814     -0.0078333338  -0.0079912704 
     42500  -41979.438     -42088.353      108.91478      40468.346      1172.3025     -83729.002      0              5219.8075     -0.0045025747  -0.0047713456 
     42600  -41984.108     -42084.462      100.35403      40530.061      1221.5226     -83836.045      0              4809.5283     -0.0023203203  -0.002460454  
     42700  -41987.788     -42086.928      99.139127      40510.647      1190.7453     -83788.32       0              4751.3032     -0.0048848375  -0.005093134  
     42800  -41993.58      -42092.42       98.839649      40489.738      1125.1148     -83707.273      0              4736.9506     -0.010151463   -0.010255805  
     42900  -41998.84      -42096.27       97.429153      40532.958      1117.8244     -83747.052      0              4669.3517     -0.011718871   -0.011879397  
     43000  -42003.963     -42096.348      92.384356      40535.808      1196.9384     -83829.094      0              4427.5767     -0.0051194255  -0.0054027342 
     43100  -42011.71      -42097.878      86.167617      40497.11       1191.7065     -83786.695      0              4129.6357     -0.004847127   -0.0049977336 
     43200  -42018.676     -42104.969      86.292935      40413.07       1192.6778     -83710.717      0              4135.6416     -0.0024388455  -0.0025784323 
     43300  -42025.098     -42107.92       82.821568      40465.829      1165.6368     -83739.386      0              3969.2742     -0.0065812544  -0.0067738677 
     43400  -42032.465     -42105.066      72.600804      40532.895      1175.6104     -83813.571      0              3479.4379     -0.0078277429  -0.0079213168 
     43500  -42038.249     -42104.421      66.171865      40544.066      1170.7207     -83819.208      0              3171.3271     -0.0089726881  -0.0090841217 
     43600  -42043.541     -42111.223      67.681683      40476.964      1158.1667     -83746.353      0              3243.686      -0.008127087   -0.0082416748 
     43700  -42048.361     -42116.889      68.527784      40475.736      1168.1973     -83760.823      0              3284.2359     -0.0069017425  -0.0069957254 
     43800  -42052.182     -42118.6        66.417887      40535.759      1175.6003     -83829.959      0              3183.1178     -0.0076655715  -0.0077583712 
     43900  -42055.026     -42117.117      62.09098       40526.442      1165.1905     -83808.749      0              2975.7481     -0.0084841764  -0.0086017716 
     44000  -42057.611     -42117.871      60.25935       40505.39       1164.726      -83787.986      0              2887.9662     -0.0080557767  -0.0081505128 
     44100  -42058.987     -42123.003      64.015485      40511.973      1167.9346     -83802.91       0              3067.9812     -0.0076664737  -0.0078028531 
     44200  -42059.708     -42124.625      64.917242      40516.184      1193.8745     -83834.684      0              3111.1985     -0.0053194341  -0.0055096102 
     44300  -42060.258     -42123.051      62.793377      40537.372      1163.5476     -83823.971      0              3009.4109     -0.0086448247  -0.0088560354 
     44400  -42061.476     -42119.803      58.326523      40519.432      1167.4613     -83806.696      0              2795.3343     -0.0080538139  -0.0081485452 
     44500  -42061.405     -42119.466      58.060834      40564.438      1154.0783     -83837.982      0              2782.601      -0.010298501   -0.010378079  
     44600  -42059.93      -42122.831      62.900869      40541.683      1188.4911     -83853.005      0              3014.5626     -0.0062964229  -0.0064816456 
     44700  -42059.201     -42122.903      63.701295      40548.603      1182.3983     -83853.904      0              3052.9235     -0.0066879569  -0.006858227  
     44800  -42058.539     -42123.107      64.568325      40538.303      1187.3898     -83848.8        0              3094.4764     -0.0057643939  -0.0058752388 
     44900  -42056.846     -42122.486      65.639861      40571.128      1173.1735     -83866.788      0              3145.8304     -0.0075559605  -0.0076871321 
     45000  -42054.733     -42122.526      67.792937      40569.054      1197.4236     -83889.004      0              3249.0179     -0.0052351861  -0.0054208325 
     45100  -42053.213     -42122.653      69.439522      40596.813      1207.8681     -83927.334      0              3327.9315     -0.0045949574  -0.004744105  
     45200  -42051.542     -42125.798      74.256326      40550.715      1223.4444     -83899.958      0              3558.7798     -0.0015272686  -0.0016356126 
     45300  -42048.715     -42126.802      78.087298      40562.057      1202.5675     -83891.427      0              3742.3815     -0.0031229601  -0.0033188916 
     45400  -42047.252     -42120.295      73.043109      40603.64       1210.2297     -83934.165      0              3500.6356     -0.0035728518  -0.003687701  
     45500  -42045.627     -42117.995      72.368054      40616.296      1227.3386     -83961.629      0              3468.2832     -0.0022817205  -0.002331539  
     45600  -42042.178     -42125.324      83.146189      40606.377      1227.3137     -83959.015      0              3984.8319     -0.0010434053  -0.0012397409 
     45700  -42039.83      -42129.83       89.999967      40607.294      1231.9232     -83969.047      0              4313.3034      0.00010277834 -0.00012042794
     45800  -42038.287     -42126.993      88.706536      40647.449      1227.2021     -84001.644      0              4251.3149     -0.0011889892  -0.0013473489 
     45900  -42037.089     -42118.903      81.814694      40674.94       1222.2875     -84016.131      0              3921.0192     -0.0025007561  -0.0025674582 
[...]
     88600  -41788.293     -41978.642      190.34961      40367.38       1251.2241     -83597.246      0              9122.6213      0.008065441    0.0071093649 
     88700  -41787.572     -41977.009      189.43667      40444.778      1175.8467     -83597.634      0              9078.8681     -0.001210132   -0.0019822762 
     88800  -41786.259     -41978.002      191.7435       40395.786      1249.1556     -83622.944      0              9189.4242      0.0066932932   0.0060512611 
     88900  -41780.975     -41984.088      203.11312      40480.59       1198.3008     -83662.979      0              9734.3203      0.00016553836 -0.00085565047
     89000  -41782.591     -41987.318      204.72727      40588.094      1160.6068     -83736.019      0              9811.6794     -0.0057447191  -0.0063819478 
     89100  -41778.684     -41990.338      211.65368      40554.543      1230.3316     -83775.212      0              10143.632      0.001692868    0.00077135477
     89200  -41780.261     -41991.27       211.00979      40413.114      1159.2858     -83563.67       0              10112.773     -0.0026012391  -0.0032476732 
     89300  -41779.362     -41994.898      215.53584      40396.621      1201.3941     -83592.913      0              10329.687      0.0027976971   0.0021022243 
     89400  -41780.795     -41987.131      206.33583      40438.393      1189.8415     -83615.365      0              9888.7709     -0.00093748563 -0.001483555  
     89500  -41777.428     -42000.982      223.55405      40455.802      1150.3399     -83607.124      0              10713.964     -0.0033127185  -0.0044015899 
     89600  -41776.309     -41996.068      219.75926      40360.339      1248.96       -83605.367      0              10532.097      0.0059062021   0.0045100469 
     89700  -41781.171     -41996.93       215.75944      40441.905      1195.2783     -83634.114      0              10340.403     -0.00082898994 -0.0019554042 
     89800  -41789.022     -41989.075      200.05286      40375.38       1181.8243     -83546.279      0              9587.6556     -0.00082462586 -0.0014217648 
     89900  -41790.373     -41995.299      204.92595      40368.703      1149.5869     -83513.588      0              9821.2012     -0.0043720383  -0.0052654392 
     90000  -41796.098     -41998.316      202.21794      40407.644      1176.9348     -83582.895      0              9691.4184     -0.0025810181  -0.003321591  
     90100  -41799.466     -41989.723      190.25655      40411.237      1191.9123     -83592.872      0              9118.1612     -0.0036996137  -0.0046154698 
     90200  -41807.208     -41978.681      171.47285      40311.178      1195.8601     -83485.719      0              8217.9412     -0.00035984964 -0.00099941844
     90300  -41813.09      -41980.086      166.99582      40342.953      1147.0732     -83470.113      0              8003.3768     -0.0070972905  -0.0077091808 
     90400  -41818.58      -41974.677      156.09676      40329.54       1217.7733     -83521.99       0              7481.0324     -0.00064824896 -0.0013151177 
     90500  -41825.734     -41975.744      150.00965      40421.779      1148.459      -83545.982      0              7189.3042     -0.010124667   -0.010679203  
     90600  -41832.753     -41970.578      137.82456      40278.41       1198.9268     -83447.914      0              6605.3265     -0.001980665   -0.0024167393 
     90700  -41832.194     -41975.591      143.39755      40296.397      1136.1779     -83408.166      0              6872.4153     -0.0079471896  -0.0091235793 
     90800  -41840.84      -41968.559      127.71965      40250.656      1194.5454     -83413.76       0              6121.0421     -0.0030346592  -0.0038761383 
     90900  -41848.633     -41963.1        114.46652      40325.483      1232.5653     -83521.149      0              5485.8781     -0.0025703259  -0.0031360251 
     91000  -41852.943     -41959.661      106.71714      40365.324      1147.2225     -83472.207      0              5114.4839     -0.010994044   -0.011614147  
     91100  -41856.082     -41962.575      106.49266      40191.822      1144.1867     -83298.583      0              5103.7258     -0.0066311237  -0.0074039067 
     91200  -41861.751     -41956.241      94.490118      40230.643      1138.7295     -83325.614      0              4528.4966     -0.0094933616  -0.010018968  
     91300  -41863.319     -41963.601      100.28242      40352.072      1218.3621     -83534.035      0              4806.0962     -0.0045526738  -0.0052575103 
     91400  -41867.937     -41957.854      89.917546      40348.529      1153.7686     -83460.152      0              4309.3533     -0.01161193    -0.012042698  
     91500  -41867.792     -41964.047      96.255474      40229.814      1187.8034     -83381.665      0              4613.1024     -0.0049430992  -0.0055597273 
     91600  -41869.55      -41959.163      89.613092      40270.733      1122.1676     -83352.064      0              4294.7622     -0.012422573   -0.012927023  
     91700  -41869.769     -41956.685      86.915755      40237.623      1143.9819     -83338.29       0              4165.4907     -0.0098769812  -0.010344206  
     91800  -41869.052     -41960.94       91.887771      40264.412      1151.4974     -83376.849      0              4403.7776     -0.010265087   -0.010671766  
     91900  -41868.876     -41958.594      89.718616      40213.255      1157.9355     -83329.785      0              4299.8195     -0.0086106717  -0.0087814975 
     92000  -41860.231     -41961.351      101.12019      40213.035      1174.2609     -83348.647      0              4846.247      -0.0064341091  -0.0071861949 
     92100  -41856.371     -41959.042      102.67145      40343.87       1144.7132     -83447.625      0              4920.5918     -0.01336179    -0.013947327  
     92200  -41850.19      -41959.337      109.14718      40084.089      1165.3619     -83208.788      0              5230.9452     -0.0040468894  -0.0045003192 
     92300  -41840.123     -41965.49       125.36773      40259.572      1094.2984     -83319.36       0              6008.3251     -0.01456322    -0.015087155  
     92400  -41826.022     -41970.212      144.18994      40269.786      1182.3129     -83422.31       0              6910.3911     -0.0064858657  -0.0073088221 
     92500  -41815.075     -41965.876      150.80081      40151.966      1159.9497     -83277.792      0              7227.2208     -0.0061482485  -0.0066343681 
     92600  -41793.737     -41980.295      186.55763      40187.777      1106.1226     -83274.194      0              8940.8884     -0.0096830525  -0.010827552  
     92700  -41781.551     -41969.484      187.93323      40200.371      1160.7315     -83330.586      0              9006.8151     -0.0062363994  -0.006910795  
     92800  -41765.555     -41971.59       206.03508      40116.931      1149.9355     -83238.456      0              9874.3573     -0.0045923005  -0.0052323933 
     92900  -41747.968     -41975.169      227.20069      40174.639      1141.1905     -83290.999      0              10888.732     -0.0058843896  -0.0067704808 
     93000  -41736.32      -41985.644      249.32366      40183.881      1220.4641     -83389.989      0              11948.989      0.001127108    0.00046021121
     93100  -41726.265     -41985.393      259.12833      40152.141      1060.6708     -83198.205      0              12418.883     -0.011180268   -0.011662047  
     93200  -41714.287     -41993.309      279.02232      40094.116      1102.4011     -83189.827      0              13372.315     -0.0053582894  -0.0061629762 
     93300  -41708.844     -41998.245      289.4001       40337.253      1101.3044     -83436.802      0              13869.676     -0.011638154   -0.012356113  
     93400  -41707.927     -42000.333      292.40628      40116.708      1136.7733     -83253.815      0              14013.75      -0.0023288548  -0.0027555719 
     93500  -41701.455     -41998.49       297.03527      40090.203      1065.1897     -83153.882      0              14235.597     -0.0084359315  -0.0095895907 
     93600  -41705.74      -42008.622      302.88186      40167.809      1176.1596     -83352.59       0              14515.798     -0.00059204754 -0.0015593988 
     93700  -41713.33      -42007.246      293.91577      40150.887      1182.1436     -83340.276      0              14086.093      0.00059162968 -7.8069859e-05
     93800  -41723.363     -42000.045      276.68218      40186.482      1048.5025     -83235.029      0              13260.163     -0.013852209   -0.014266054  
     93900  -41726.805     -42013.92       287.11553      40131.381      1147.0163     -83292.317      0              13760.187     -0.0023846299  -0.0035170719 
     94000  -41741.675     -42009.53       267.85548      40180.194      1188.8573     -83378.582      0              12837.137     -0.0015812488  -0.0023174336 
     94100  -41754.814     -42013.341      258.52703      40214.202      1104.9496     -83332.493      0              12390.066     -0.0088182157  -0.0095050504 
     94200  -41769.144     -42015.371      246.22732      40134.025      1139.0998     -83288.496      0              11800.595     -0.0047003813  -0.0052573272 
     94300  -41785.777     -42014.685      228.90757      40210.263      1181.5107     -83406.459      0              10970.535     -0.0043532954  -0.0045663804 
     94400  -41794.944     -42018.626      223.6825       40187.259      1144.9826     -83350.868      0              10720.121     -0.0060547475  -0.0067423172 
     94500  -41808.047     -42020.572      212.52487      40155.615      1171.6265     -83347.813      0              10185.384     -0.0029748537  -0.0035755329 
     94600  -41819.414     -42020.282      200.86814      40233.096      1109.4435     -83362.822      0              9626.7284     -0.010640708   -0.011220494  
     94700  -41827.819     -42022.63       194.81155      40341.979      1130.8946     -83495.504      0              9336.4628     -0.012155475   -0.012963731  
     94800  -41838.382     -42021.307      182.92522      40238.182      1155.3885     -83414.878      0              8766.803      -0.0073353824  -0.0079763857 
     94900  -41847.776     -42026.042      178.26581      40305.765      1143.3555     -83475.163      0              8543.4977     -0.010199424   -0.010642566  
     95000  -41852.79      -42031.012      178.22132      40236.61       1169.1113     -83436.733      0              8541.3656     -0.0055470395  -0.0061797685 
     95100  -41862.127     -42022.773      160.64597      40219.221      1159.5412     -83401.535      0              7699.0564     -0.0056576785  -0.0058455893 
     95200  -41865.994     -42020.824      154.8308       40385.461      1174.4485     -83580.734      0              7420.3605     -0.0095423013  -0.0097872482 
     95300  -41865.924     -42028.157      162.23313      40303.838      1195.3236     -83527.319      0              7775.1219     -0.0050801004  -0.0057268193 
     95400  -41870.212     -42023.409      153.19656      40321.762      1192.1234     -83537.294      0              7342.0388     -0.0058848163  -0.0063303311 
     95500  -41871.947     -42024.942      152.99563      40298.1        1162.2225     -83485.265      0              7332.409      -0.0074877197  -0.0079344762 
     95600  -41872.536     -42026.965      154.42846      40279.578      1243.8881     -83550.431      0              7401.0784      0.00038060942 -0.00012063902
     95700  -41871.025     -42029.198      158.17287      40378.313      1248.9232     -83656.434      0              7580.5312     -0.0010495194  -0.001758031  
     95800  -41871.241     -42028.404      157.1631       40456.076      1122.7841     -83607.264      0              7532.1374     -0.013524735   -0.014147528  
     95900  -41871.6       -42026.905      155.30481      40372.533      1210.8577     -83610.295      0              7443.0778     -0.004248867   -0.0047227173 
     96000  -41870.729     -42032.707      161.97826      40374.1        1193.4089     -83600.216      0              7762.9073     -0.0045135183  -0.0049090097 
     96100  -41866.996     -42033.038      166.04169      40565.443      1211.4233     -83809.905      0              7957.6493     -0.0076081036  -0.0081642058 
     96200  -41864.306     -42029.5        165.19475      40441.037      1271.5002     -83742.037      0              7917.0592      0.0011981302   0.0006556752 
     96300  -41861.032     -42031.86       170.82821      40375.601      1195.0406     -83602.502      0              8187.0464     -0.0029277392  -0.0034239557 
     96400  -41856.649     -42033.136      176.4866       40446.844      1265.0174     -83744.997      0              8458.2283      0.0019633242   0.0014112626 
     96500  -41853.761     -42032.754      178.99316      40458.118      1251.6893     -83742.561      0              8578.3568      0.001098543    0.00072244494
     96600  -41845.096     -42038.993      193.89691      40614.47       1298.499      -83951.962      0              9292.6279      0.00275545     0.0019690883 
     96700  -41838.795     -42050.406      211.61139      40487.572      1318.96       -83856.939      0              10141.605      0.0084314811   0.0075530757 
     96800  -41833.75      -42043.307      209.55627      40556.472      1173.3367     -83773.116      0              10043.112     -0.0058703094  -0.0066114662 
     96900  -41827.384     -42036.892      209.50788      40520.705      1344.1834     -83901.781      0              10040.793      0.010732337    0.010032336  
     97000  -41818.95      -42034.806      215.85586      40630.167      1296.4765     -83961.449      0              10345.024      0.0053354869   0.0044601242 
     97100  -41810.541     -42040.68       230.13905      40538.11       1288.3153     -83867.105      0              11029.554      0.00743494     0.0064907449 
     97200  -41805.726     -42042.335      236.60945      40560.16       1287.2464     -83889.742      0              11339.652      0.0073236661   0.0067362555 
     97300  -41796.635     -42035.442      238.80764      40653.963      1363.5912     -84052.996      0              11445.002      0.012087745    0.011511875  
     97400  -41783.676     -42032.116      248.44038      40661.775      1394.7359     -84088.628      0              11906.657      0.016499992    0.015532646  
     97500  -41773.317     -42026.924      253.60759      40795.798      1291.0185     -84113.741      0              12154.299      0.004260455    0.0033479782 
     97600  -41762.587     -42018.724      256.13648      40713.428      1388.5126     -84120.665      0              12275.497      0.015754103    0.015052093  
     97700  -41747.287     -42023.867      276.57987      40880.972      1324.985      -84229.824      0              13255.259      0.007099444    0.0062368306 
     97800  -41731.909     -42020.254      288.34475      40777.827      1436.1914     -84234.273      0              13819.098      0.021716997    0.020957181  
     97900  -41715.041     -42019.917      304.87562      40837.873      1395.3072     -84253.097      0              14611.35       0.017474976    0.01700342   
     98000  -41691.609     -42010.573      318.96459      40864.007      1408.6889     -84283.269      0              15286.573      0.018691414    0.018079804  
     98100  -41666.327     -42011.653      345.32591      40801.454      1449.8251     -84262.932      0              16549.955      0.026849055    0.026144357  
     98200  -41636.945     -42007.353      370.40805      40984.498      1314.9207     -84306.772      0              17752.032      0.012600363    0.011493127  
     98300  -41610.134     -41994.589      384.45496      40863.133      1529.8708     -84387.593      0              18425.239      0.034103709    0.032819409  
     98400  -41585.222     -41979.072      393.84966      40915.41       1590.6935     -84485.175      0              18875.486      0.039287805    0.037833948  
     98500  -41568.157     -41959.24       391.08325      41192.98       1421.4275     -84573.647      0              18742.904      0.019253058    0.018042111  
     98600  -41555.678     -41949.289      393.61053      40877.917      1596.8765     -84424.082      0              18864.025      0.042681838    0.041589609  
     98700  -41551.375     -41930.691      379.31612      41161.904      1494.0639     -84586.659      0              18178.957      0.025994549    0.025199189  
     98800  -41552.078     -41926.163      374.0851       40985.482      1598.0363     -84509.682      0              17928.257      0.039081569    0.038480442  
     98900  -41553.567     -41918.193      364.62631      41064.497      1595.1688     -84577.859      0              17474.939      0.038422369    0.037445529  
     99000  -41565.021     -41898.346      333.32571      41179.728      1612.1411     -84690.216      0              15974.838      0.035789475    0.035005111  
     99100  -41573.664     -41896.931      323.26624      41111.514      1631.5279     -84639.972      0              15492.732      0.039412023    0.037928214  
     99200  -41591.855     -41875.781      283.92528      41187.928      1586.2683     -84649.977      0              13607.292      0.032333693    0.031060064  
     99300  -41616.372     -41865.438      249.06556      41087.217      1664.5301     -84617.185      0              11936.619      0.04076984     0.040170618  
     99400  -41631.919     -41864.873      232.95441      41460.819      1548.7059     -84874.398      0              11164.482      0.020753639    0.019911313  
     99500  -41648.826     -41847.957      199.13038      41187.03       1681.9848     -84716.971      0              9543.4451      0.038252549    0.037325557  
     99600  -41664.035     -41845.398      181.36217      41178.921      1697.1604     -84721.479      0              8691.893       0.036720607    0.035883276  
     99700  -41677.025     -41846.393      169.36835      41147.786      1725.014      -84719.193      0              8117.0818      0.039921921    0.03903011   
     99800  -41689.719     -41837.107      147.38787      41210.236      1733.4169     -84780.76       0              7063.6539      0.038629952    0.038022291  
     99900  -41693.404     -41842.056      148.65183      41172.458      1560.4808     -84574.995      0              7124.2299      0.023409382    0.022236427  
    100000  -41705.967     -41842.625      136.65819      40989.276      1604.9706     -84436.872      0              6549.4271      0.031500861    0.030946628  
    100063  -41708.159     -41849.489      141.33048      41290.168      1699.9973     -84839.654      0              6773.3496      0.033308245    0.032607517  
Loop time of 1.73627 on 4 procs for 100000 steps with 22 atoms

Performance: 4.976 ns/day, 4.823 hours/ns, 57594.664 timesteps/s, 1.267 Matom-step/s
99.9% CPU use with 4 MPI tasks x 1 OpenMP threads

MPI task timing breakdown:
Section |  min time  |  avg time  |  max time  |%varavg| %total
---------------------------------------------------------------
Pair    | 0.33757    | 0.64947    | 0.9925     |  32.4 | 37.41
Neigh   | 5.699e-06  | 7.4185e-06 | 8.835e-06  |   0.0 |  0.00
Comm    | 0.38116    | 0.74319    | 1.0526     |  31.3 | 42.80
Output  | 0.054329   | 0.056987   | 0.061816   |   1.2 |  3.28
Modify  | 0.1315     | 0.14681    | 0.16646    |   3.3 |  8.46
Other   |            | 0.1398     |            |       |  8.05

Nlocal:            5.5 ave           6 max           5 min
Histogram: 2 0 0 0 0 0 0 0 0 2
Nghost:           16.5 ave          17 max          16 min
Histogram: 2 0 0 0 0 0 0 0 0 2
Neighs:          57.75 ave          96 max          15 min
Histogram: 1 0 0 1 0 0 0 0 1 1

Total # of neighbors = 231
Ave neighs/atom = 10.5
Neighbor list builds = 3
Dangerous builds = 0

Total wall time: 0:00:01
